V -t * -v 1.0a5 -a 0
A -t * -n 1 -p 0 -o 0x7fffffff -c 30 -a 1
A -t * -h 1 -m 1073741823 -s 0
n -t * -a 0 -s 0 -S UP -v circle -c black -i black
n -t * -a 1 -s 1 -S UP -v circle -c black -i black
l -t * -s 0 -d 1 -S UP -r 1000000 -D 0.10000000000000001 -c black
+ -t 0.5 -s 0 -d 1 -p tcp -e 40 -c 0 -i 0 -a 0 -x {0.0 1.0 0 ------- null}
- -t 0.5 -s 0 -d 1 -p tcp -e 40 -c 0 -i 0 -a 0 -x {0.0 1.0 0 ------- null}
h -t 0.5 -s 0 -d 1 -p tcp -e 40 -c 0 -i 0 -a 0 -x {0.0 1.0 -1 ------- null}
r -t 0.60032 -s 0 -d 1 -p tcp -e 40 -c 0 -i 0 -a 0 -x {0.0 1.0 0 ------- null}
+ -t 0.60032 -s 1 -d 0 -p ack -e 40 -c 0 -i 1 -a 0 -x {1.0 0.0 0 ------- null}
- -t 0.60032 -s 1 -d 0 -p ack -e 40 -c 0 -i 1 -a 0 -x {1.0 0.0 0 ------- null}
h -t 0.60032 -s 1 -d 0 -p ack -e 40 -c 0 -i 1 -a 0 -x {1.0 0.0 -1 ------- null}
r -t 0.70064 -s 1 -d 0 -p ack -e 40 -c 0 -i 1 -a 0 -x {1.0 0.0 0 ------- null}
+ -t 0.70064 -s 0 -d 1 -p tcp -e 40 -c 0 -i 2 -a 0 -x {0.0 1.0 1 ------- null}
- -t 0.70064 -s 0 -d 1 -p tcp -e 40 -c 0 -i 2 -a 0 -x {0.0 1.0 1 ------- null}
h -t 0.70064 -s 0 -d 1 -p tcp -e 40 -c 0 -i 2 -a 0 -x {0.0 1.0 -1 ------- null}
+ -t 0.70064 -s 0 -d 1 -p tcp -e 576 -c 0 -i 3 -a 0 -x {0.0 1.0 1 ------- null}
+ -t 0.70064 -s 0 -d 1 -p tcp -e 576 -c 0 -i 4 -a 0 -x {0.0 1.0 537 ------- null}
- -t 0.70096 -s 0 -d 1 -p tcp -e 576 -c 0 -i 3 -a 0 -x {0.0 1.0 1 ------- null}
h -t 0.70096 -s 0 -d 1 -p tcp -e 576 -c 0 -i 3 -a 0 -x {0.0 1.0 -1 ------- null}
- -t 0.705568 -s 0 -d 1 -p tcp -e 576 -c 0 -i 4 -a 0 -x {0.0 1.0 537 ------- null}
h -t 0.705568 -s 0 -d 1 -p tcp -e 576 -c 0 -i 4 -a 0 -x {0.0 1.0 -1 ------- null}
r -t 0.80096 -s 0 -d 1 -p tcp -e 40 -c 0 -i 2 -a 0 -x {0.0 1.0 1 ------- null}
r -t 0.805568 -s 0 -d 1 -p tcp -e 576 -c 0 -i 3 -a 0 -x {0.0 1.0 1 ------- null}
+ -t 0.805568 -s 1 -d 0 -p ack -e 40 -c 0 -i 5 -a 0 -x {1.0 0.0 1 ------- null}
- -t 0.805568 -s 1 -d 0 -p ack -e 40 -c 0 -i 5 -a 0 -x {1.0 0.0 1 ------- null}
h -t 0.805568 -s 1 -d 0 -p ack -e 40 -c 0 -i 5 -a 0 -x {1.0 0.0 -1 ------- null}
r -t 0.810176 -s 0 -d 1 -p tcp -e 576 -c 0 -i 4 -a 0 -x {0.0 1.0 537 ------- null}
+ -t 0.810176 -s 1 -d 0 -p ack -e 40 -c 0 -i 6 -a 0 -x {1.0 0.0 1 ------- null}
- -t 0.810176 -s 1 -d 0 -p ack -e 40 -c 0 -i 6 -a 0 -x {1.0 0.0 1 ------- null}
h -t 0.810176 -s 1 -d 0 -p ack -e 40 -c 0 -i 6 -a 0 -x {1.0 0.0 -1 ------- null}
r -t 0.905888 -s 1 -d 0 -p ack -e 40 -c 0 -i 5 -a 0 -x {1.0 0.0 1 ------- null}
+ -t 0.905888 -s 0 -d 1 -p tcp -e 576 -c 0 -i 7 -a 0 -x {0.0 1.0 1073 ------- null}
- -t 0.905888 -s 0 -d 1 -p tcp -e 576 -c 0 -i 7 -a 0 -x {0.0 1.0 1073 ------- null}
h -t 0.905888 -s 0 -d 1 -p tcp -e 576 -c 0 -i 7 -a 0 -x {0.0 1.0 -1 ------- null}
+ -t 0.905888 -s 0 -d 1 -p tcp -e 576 -c 0 -i 8 -a 0 -x {0.0 1.0 1609 ------- null}
r -t 0.910496 -s 1 -d 0 -p ack -e 40 -c 0 -i 6 -a 0 -x {1.0 0.0 1 ------- null}
+ -t 0.910496 -s 0 -d 1 -p tcp -e 576 -c 0 -i 9 -a 0 -x {0.0 1.0 2145 ------- null}
+ -t 0.910496 -s 0 -d 1 -p tcp -e 576 -c 0 -i 10 -a 0 -x {0.0 1.0 2681 ------- null}
- -t 0.910496 -s 0 -d 1 -p tcp -e 576 -c 0 -i 8 -a 0 -x {0.0 1.0 1609 ------- null}
h -t 0.910496 -s 0 -d 1 -p tcp -e 576 -c 0 -i 8 -a 0 -x {0.0 1.0 -1 ------- null}
- -t 0.915104 -s 0 -d 1 -p tcp -e 576 -c 0 -i 9 -a 0 -x {0.0 1.0 2145 ------- null}
h -t 0.915104 -s 0 -d 1 -p tcp -e 576 -c 0 -i 9 -a 0 -x {0.0 1.0 -1 ------- null}
- -t 0.919712 -s 0 -d 1 -p tcp -e 576 -c 0 -i 10 -a 0 -x {0.0 1.0 2681 ------- null}
h -t 0.919712 -s 0 -d 1 -p tcp -e 576 -c 0 -i 10 -a 0 -x {0.0 1.0 -1 ------- null}
r -t 1.010496 -s 0 -d 1 -p tcp -e 576 -c 0 -i 7 -a 0 -x {0.0 1.0 1073 ------- null}
+ -t 1.010496 -s 1 -d 0 -p ack -e 40 -c 0 -i 11 -a 0 -x {1.0 0.0 1 ------- null}
- -t 1.010496 -s 1 -d 0 -p ack -e 40 -c 0 -i 11 -a 0 -x {1.0 0.0 1 ------- null}
h -t 1.010496 -s 1 -d 0 -p ack -e 40 -c 0 -i 11 -a 0 -x {1.0 0.0 -1 ------- null}
r -t 1.015104 -s 0 -d 1 -p tcp -e 576 -c 0 -i 8 -a 0 -x {0.0 1.0 1609 ------- null}
+ -t 1.015104 -s 1 -d 0 -p ack -e 40 -c 0 -i 12 -a 0 -x {1.0 0.0 1 ------- null}
- -t 1.015104 -s 1 -d 0 -p ack -e 40 -c 0 -i 12 -a 0 -x {1.0 0.0 1 ------- null}
h -t 1.015104 -s 1 -d 0 -p ack -e 40 -c 0 -i 12 -a 0 -x {1.0 0.0 -1 ------- null}
r -t 1.019712 -s 0 -d 1 -p tcp -e 576 -c 0 -i 9 -a 0 -x {0.0 1.0 2145 ------- null}
+ -t 1.019712 -s 1 -d 0 -p ack -e 40 -c 0 -i 13 -a 0 -x {1.0 0.0 1 ------- null}
- -t 1.019712 -s 1 -d 0 -p ack -e 40 -c 0 -i 13 -a 0 -x {1.0 0.0 1 ------- null}
h -t 1.019712 -s 1 -d 0 -p ack -e 40 -c 0 -i 13 -a 0 -x {1.0 0.0 -1 ------- null}
r -t 1.02432 -s 0 -d 1 -p tcp -e 576 -c 0 -i 10 -a 0 -x {0.0 1.0 2681 ------- null}
+ -t 1.02432 -s 1 -d 0 -p ack -e 40 -c 0 -i 14 -a 0 -x {1.0 0.0 1 ------- null}
- -t 1.02432 -s 1 -d 0 -p ack -e 40 -c 0 -i 14 -a 0 -x {1.0 0.0 1 ------- null}
h -t 1.02432 -s 1 -d 0 -p ack -e 40 -c 0 -i 14 -a 0 -x {1.0 0.0 -1 ------- null}
r -t 1.110816 -s 1 -d 0 -p ack -e 40 -c 0 -i 11 -a 0 -x {1.0 0.0 1 ------- null}
+ -t 1.110816 -s 0 -d 1 -p tcp -e 576 -c 0 -i 15 -a 0 -x {0.0 1.0 3217 ------- null}
- -t 1.110816 -s 0 -d 1 -p tcp -e 576 -c 0 -i 15 -a 0 -x {0.0 1.0 3217 ------- null}
h -t 1.110816 -s 0 -d 1 -p tcp -e 576 -c 0 -i 15 -a 0 -x {0.0 1.0 -1 ------- null}
+ -t 1.110816 -s 0 -d 1 -p tcp -e 576 -c 0 -i 16 -a 0 -x {0.0 1.0 3753 ------- null}
r -t 1.115424 -s 1 -d 0 -p ack -e 40 -c 0 -i 12 -a 0 -x {1.0 0.0 1 ------- null}
+ -t 1.115424 -s 0 -d 1 -p tcp -e 576 -c 0 -i 17 -a 0 -x {0.0 1.0 4289 ------- null}
+ -t 1.115424 -s 0 -d 1 -p tcp -e 576 -c 0 -i 18 -a 0 -x {0.0 1.0 4825 ------- null}
- -t 1.115424 -s 0 -d 1 -p tcp -e 576 -c 0 -i 16 -a 0 -x {0.0 1.0 3753 ------- null}
h -t 1.115424 -s 0 -d 1 -p tcp -e 576 -c 0 -i 16 -a 0 -x {0.0 1.0 -1 ------- null}
r -t 1.120032 -s 1 -d 0 -p ack -e 40 -c 0 -i 13 -a 0 -x {1.0 0.0 1 ------- null}
+ -t 1.120032 -s 0 -d 1 -p tcp -e 576 -c 0 -i 19 -a 0 -x {0.0 1.0 5361 ------- null}
+ -t 1.120032 -s 0 -d 1 -p tcp -e 576 -c 0 -i 20 -a 0 -x {0.0 1.0 5897 ------- null}
- -t 1.120032 -s 0 -d 1 -p tcp -e 576 -c 0 -i 17 -a 0 -x {0.0 1.0 4289 ------- null}
h -t 1.120032 -s 0 -d 1 -p tcp -e 576 -c 0 -i 17 -a 0 -x {0.0 1.0 -1 ------- null}
r -t 1.12464 -s 1 -d 0 -p ack -e 40 -c 0 -i 14 -a 0 -x {1.0 0.0 1 ------- null}
+ -t 1.12464 -s 0 -d 1 -p tcp -e 576 -c 0 -i 21 -a 0 -x {0.0 1.0 6433 ------- null}
+ -t 1.12464 -s 0 -d 1 -p tcp -e 576 -c 0 -i 22 -a 0 -x {0.0 1.0 6969 ------- null}
- -t 1.12464 -s 0 -d 1 -p tcp -e 576 -c 0 -i 18 -a 0 -x {0.0 1.0 4825 ------- null}
h -t 1.12464 -s 0 -d 1 -p tcp -e 576 -c 0 -i 18 -a 0 -x {0.0 1.0 -1 ------- null}
- -t 1.129248 -s 0 -d 1 -p tcp -e 576 -c 0 -i 19 -a 0 -x {0.0 1.0 5361 ------- null}
h -t 1.129248 -s 0 -d 1 -p tcp -e 576 -c 0 -i 19 -a 0 -x {0.0 1.0 -1 ------- null}
- -t 1.133856 -s 0 -d 1 -p tcp -e 576 -c 0 -i 20 -a 0 -x {0.0 1.0 5897 ------- null}
h -t 1.133856 -s 0 -d 1 -p tcp -e 576 -c 0 -i 20 -a 0 -x {0.0 1.0 -1 ------- null}
- -t 1.138464 -s 0 -d 1 -p tcp -e 576 -c 0 -i 21 -a 0 -x {0.0 1.0 6433 ------- null}
h -t 1.138464 -s 0 -d 1 -p tcp -e 576 -c 0 -i 21 -a 0 -x {0.0 1.0 -1 ------- null}
- -t 1.143072 -s 0 -d 1 -p tcp -e 576 -c 0 -i 22 -a 0 -x {0.0 1.0 6969 ------- null}
h -t 1.143072 -s 0 -d 1 -p tcp -e 576 -c 0 -i 22 -a 0 -x {0.0 1.0 -1 ------- null}
r -t 1.215424 -s 0 -d 1 -p tcp -e 576 -c 0 -i 15 -a 0 -x {0.0 1.0 3217 ------- null}
+ -t 1.215424 -s 1 -d 0 -p ack -e 40 -c 0 -i 23 -a 0 -x {1.0 0.0 1 ------- null}
- -t 1.215424 -s 1 -d 0 -p ack -e 40 -c 0 -i 23 -a 0 -x {1.0 0.0 1 ------- null}
h -t 1.215424 -s 1 -d 0 -p ack -e 40 -c 0 -i 23 -a 0 -x {1.0 0.0 -1 ------- null}
r -t 1.220032 -s 0 -d 1 -p tcp -e 576 -c 0 -i 16 -a 0 -x {0.0 1.0 3753 ------- null}
+ -t 1.220032 -s 1 -d 0 -p ack -e 40 -c 0 -i 24 -a 0 -x {1.0 0.0 1 ------- null}
- -t 1.220032 -s 1 -d 0 -p ack -e 40 -c 0 -i 24 -a 0 -x {1.0 0.0 1 ------- null}
h -t 1.220032 -s 1 -d 0 -p ack -e 40 -c 0 -i 24 -a 0 -x {1.0 0.0 -1 ------- null}
r -t 1.22464 -s 0 -d 1 -p tcp -e 576 -c 0 -i 17 -a 0 -x {0.0 1.0 4289 ------- null}
+ -t 1.22464 -s 1 -d 0 -p ack -e 40 -c 0 -i 25 -a 0 -x {1.0 0.0 1 ------- null}
- -t 1.22464 -s 1 -d 0 -p ack -e 40 -c 0 -i 25 -a 0 -x {1.0 0.0 1 ------- null}
h -t 1.22464 -s 1 -d 0 -p ack -e 40 -c 0 -i 25 -a 0 -x {1.0 0.0 -1 ------- null}
r -t 1.229248 -s 0 -d 1 -p tcp -e 576 -c 0 -i 18 -a 0 -x {0.0 1.0 4825 ------- null}
+ -t 1.229248 -s 1 -d 0 -p ack -e 40 -c 0 -i 26 -a 0 -x {1.0 0.0 1 ------- null}
- -t 1.229248 -s 1 -d 0 -p ack -e 40 -c 0 -i 26 -a 0 -x {1.0 0.0 1 ------- null}
h -t 1.229248 -s 1 -d 0 -p ack -e 40 -c 0 -i 26 -a 0 -x {1.0 0.0 -1 ------- null}
r -t 1.233856 -s 0 -d 1 -p tcp -e 576 -c 0 -i 19 -a 0 -x {0.0 1.0 5361 ------- null}
+ -t 1.233856 -s 1 -d 0 -p ack -e 40 -c 0 -i 27 -a 0 -x {1.0 0.0 1 ------- null}
- -t 1.233856 -s 1 -d 0 -p ack -e 40 -c 0 -i 27 -a 0 -x {1.0 0.0 1 ------- null}
h -t 1.233856 -s 1 -d 0 -p ack -e 40 -c 0 -i 27 -a 0 -x {1.0 0.0 -1 ------- null}
r -t 1.238464 -s 0 -d 1 -p tcp -e 576 -c 0 -i 20 -a 0 -x {0.0 1.0 5897 ------- null}
+ -t 1.238464 -s 1 -d 0 -p ack -e 40 -c 0 -i 28 -a 0 -x {1.0 0.0 1 ------- null}
- -t 1.238464 -s 1 -d 0 -p ack -e 40 -c 0 -i 28 -a 0 -x {1.0 0.0 1 ------- null}
h -t 1.238464 -s 1 -d 0 -p ack -e 40 -c 0 -i 28 -a 0 -x {1.0 0.0 -1 ------- null}
r -t 1.243072 -s 0 -d 1 -p tcp -e 576 -c 0 -i 21 -a 0 -x {0.0 1.0 6433 ------- null}
+ -t 1.243072 -s 1 -d 0 -p ack -e 40 -c 0 -i 29 -a 0 -x {1.0 0.0 1 ------- null}
- -t 1.243072 -s 1 -d 0 -p ack -e 40 -c 0 -i 29 -a 0 -x {1.0 0.0 1 ------- null}
h -t 1.243072 -s 1 -d 0 -p ack -e 40 -c 0 -i 29 -a 0 -x {1.0 0.0 -1 ------- null}
r -t 1.24768 -s 0 -d 1 -p tcp -e 576 -c 0 -i 22 -a 0 -x {0.0 1.0 6969 ------- null}
+ -t 1.24768 -s 1 -d 0 -p ack -e 40 -c 0 -i 30 -a 0 -x {1.0 0.0 1 ------- null}
- -t 1.24768 -s 1 -d 0 -p ack -e 40 -c 0 -i 30 -a 0 -x {1.0 0.0 1 ------- null}
h -t 1.24768 -s 1 -d 0 -p ack -e 40 -c 0 -i 30 -a 0 -x {1.0 0.0 -1 ------- null}
r -t 1.315744 -s 1 -d 0 -p ack -e 40 -c 0 -i 23 -a 0 -x {1.0 0.0 1 ------- null}
+ -t 1.315744 -s 0 -d 1 -p tcp -e 576 -c 0 -i 31 -a 0 -x {0.0 1.0 7505 ------- null}
- -t 1.315744 -s 0 -d 1 -p tcp -e 576 -c 0 -i 31 -a 0 -x {0.0 1.0 7505 ------- null}
h -t 1.315744 -s 0 -d 1 -p tcp -e 576 -c 0 -i 31 -a 0 -x {0.0 1.0 -1 ------- null}
+ -t 1.315744 -s 0 -d 1 -p tcp -e 576 -c 0 -i 32 -a 0 -x {0.0 1.0 8041 ------- null}
r -t 1.320352 -s 1 -d 0 -p ack -e 40 -c 0 -i 24 -a 0 -x {1.0 0.0 1 ------- null}
+ -t 1.320352 -s 0 -d 1 -p tcp -e 576 -c 0 -i 33 -a 0 -x {0.0 1.0 8577 ------- null}
+ -t 1.320352 -s 0 -d 1 -p tcp -e 576 -c 0 -i 34 -a 0 -x {0.0 1.0 9113 ------- null}
- -t 1.320352 -s 0 -d 1 -p tcp -e 576 -c 0 -i 32 -a 0 -x {0.0 1.0 8041 ------- null}
h -t 1.320352 -s 0 -d 1 -p tcp -e 576 -c 0 -i 32 -a 0 -x {0.0 1.0 -1 ------- null}
r -t 1.32496 -s 1 -d 0 -p ack -e 40 -c 0 -i 25 -a 0 -x {1.0 0.0 1 ------- null}
+ -t 1.32496 -s 0 -d 1 -p tcp -e 576 -c 0 -i 35 -a 0 -x {0.0 1.0 9649 ------- null}
- -t 1.32496 -s 0 -d 1 -p tcp -e 576 -c 0 -i 33 -a 0 -x {0.0 1.0 8577 ------- null}
h -t 1.32496 -s 0 -d 1 -p tcp -e 576 -c 0 -i 33 -a 0 -x {0.0 1.0 -1 ------- null}
r -t 1.329568 -s 1 -d 0 -p ack -e 40 -c 0 -i 26 -a 0 -x {1.0 0.0 1 ------- null}
+ -t 1.329568 -s 0 -d 1 -p tcp -e 576 -c 0 -i 36 -a 0 -x {0.0 1.0 10185 ------- null}
- -t 1.329568 -s 0 -d 1 -p tcp -e 576 -c 0 -i 34 -a 0 -x {0.0 1.0 9113 ------- null}
h -t 1.329568 -s 0 -d 1 -p tcp -e 576 -c 0 -i 34 -a 0 -x {0.0 1.0 -1 ------- null}
r -t 1.334176 -s 1 -d 0 -p ack -e 40 -c 0 -i 27 -a 0 -x {1.0 0.0 1 ------- null}
+ -t 1.334176 -s 0 -d 1 -p tcp -e 576 -c 0 -i 37 -a 0 -x {0.0 1.0 10721 ------- null}
- -t 1.334176 -s 0 -d 1 -p tcp -e 576 -c 0 -i 35 -a 0 -x {0.0 1.0 9649 ------- null}
h -t 1.334176 -s 0 -d 1 -p tcp -e 576 -c 0 -i 35 -a 0 -x {0.0 1.0 -1 ------- null}
r -t 1.338784 -s 1 -d 0 -p ack -e 40 -c 0 -i 28 -a 0 -x {1.0 0.0 1 ------- null}
+ -t 1.338784 -s 0 -d 1 -p tcp -e 576 -c 0 -i 38 -a 0 -x {0.0 1.0 11257 ------- null}
- -t 1.338784 -s 0 -d 1 -p tcp -e 576 -c 0 -i 36 -a 0 -x {0.0 1.0 10185 ------- null}
h -t 1.338784 -s 0 -d 1 -p tcp -e 576 -c 0 -i 36 -a 0 -x {0.0 1.0 -1 ------- null}
r -t 1.343392 -s 1 -d 0 -p ack -e 40 -c 0 -i 29 -a 0 -x {1.0 0.0 1 ------- null}
+ -t 1.343392 -s 0 -d 1 -p tcp -e 576 -c 0 -i 39 -a 0 -x {0.0 1.0 11793 ------- null}
- -t 1.343392 -s 0 -d 1 -p tcp -e 576 -c 0 -i 37 -a 0 -x {0.0 1.0 10721 ------- null}
h -t 1.343392 -s 0 -d 1 -p tcp -e 576 -c 0 -i 37 -a 0 -x {0.0 1.0 -1 ------- null}
r -t 1.348 -s 1 -d 0 -p ack -e 40 -c 0 -i 30 -a 0 -x {1.0 0.0 1 ------- null}
+ -t 1.348 -s 0 -d 1 -p tcp -e 576 -c 0 -i 40 -a 0 -x {0.0 1.0 12329 ------- null}
- -t 1.348 -s 0 -d 1 -p tcp -e 576 -c 0 -i 38 -a 0 -x {0.0 1.0 11257 ------- null}
h -t 1.348 -s 0 -d 1 -p tcp -e 576 -c 0 -i 38 -a 0 -x {0.0 1.0 -1 ------- null}
- -t 1.352608 -s 0 -d 1 -p tcp -e 576 -c 0 -i 39 -a 0 -x {0.0 1.0 11793 ------- null}
h -t 1.352608 -s 0 -d 1 -p tcp -e 576 -c 0 -i 39 -a 0 -x {0.0 1.0 -1 ------- null}
- -t 1.357216 -s 0 -d 1 -p tcp -e 576 -c 0 -i 40 -a 0 -x {0.0 1.0 12329 ------- null}
h -t 1.357216 -s 0 -d 1 -p tcp -e 576 -c 0 -i 40 -a 0 -x {0.0 1.0 -1 ------- null}
r -t 1.420352 -s 0 -d 1 -p tcp -e 576 -c 0 -i 31 -a 0 -x {0.0 1.0 7505 ------- null}
+ -t 1.420352 -s 1 -d 0 -p ack -e 40 -c 0 -i 41 -a 0 -x {1.0 0.0 1 ------- null}
- -t 1.420352 -s 1 -d 0 -p ack -e 40 -c 0 -i 41 -a 0 -x {1.0 0.0 1 ------- null}
h -t 1.420352 -s 1 -d 0 -p ack -e 40 -c 0 -i 41 -a 0 -x {1.0 0.0 -1 ------- null}
r -t 1.42496 -s 0 -d 1 -p tcp -e 576 -c 0 -i 32 -a 0 -x {0.0 1.0 8041 ------- null}
+ -t 1.42496 -s 1 -d 0 -p ack -e 40 -c 0 -i 42 -a 0 -x {1.0 0.0 1 ------- null}
- -t 1.42496 -s 1 -d 0 -p ack -e 40 -c 0 -i 42 -a 0 -x {1.0 0.0 1 ------- null}
h -t 1.42496 -s 1 -d 0 -p ack -e 40 -c 0 -i 42 -a 0 -x {1.0 0.0 -1 ------- null}
r -t 1.429568 -s 0 -d 1 -p tcp -e 576 -c 0 -i 33 -a 0 -x {0.0 1.0 8577 ------- null}
+ -t 1.429568 -s 1 -d 0 -p ack -e 40 -c 0 -i 43 -a 0 -x {1.0 0.0 1 ------- null}
- -t 1.429568 -s 1 -d 0 -p ack -e 40 -c 0 -i 43 -a 0 -x {1.0 0.0 1 ------- null}
h -t 1.429568 -s 1 -d 0 -p ack -e 40 -c 0 -i 43 -a 0 -x {1.0 0.0 -1 ------- null}
r -t 1.434176 -s 0 -d 1 -p tcp -e 576 -c 0 -i 34 -a 0 -x {0.0 1.0 9113 ------- null}
+ -t 1.434176 -s 1 -d 0 -p ack -e 40 -c 0 -i 44 -a 0 -x {1.0 0.0 1 ------- null}
- -t 1.434176 -s 1 -d 0 -p ack -e 40 -c 0 -i 44 -a 0 -x {1.0 0.0 1 ------- null}
h -t 1.434176 -s 1 -d 0 -p ack -e 40 -c 0 -i 44 -a 0 -x {1.0 0.0 -1 ------- null}
r -t 1.438784 -s 0 -d 1 -p tcp -e 576 -c 0 -i 35 -a 0 -x {0.0 1.0 9649 ------- null}
+ -t 1.438784 -s 1 -d 0 -p ack -e 40 -c 0 -i 45 -a 0 -x {1.0 0.0 1 ------- null}
- -t 1.438784 -s 1 -d 0 -p ack -e 40 -c 0 -i 45 -a 0 -x {1.0 0.0 1 ------- null}
h -t 1.438784 -s 1 -d 0 -p ack -e 40 -c 0 -i 45 -a 0 -x {1.0 0.0 -1 ------- null}
r -t 1.443392 -s 0 -d 1 -p tcp -e 576 -c 0 -i 36 -a 0 -x {0.0 1.0 10185 ------- null}
+ -t 1.443392 -s 1 -d 0 -p ack -e 40 -c 0 -i 46 -a 0 -x {1.0 0.0 1 ------- null}
- -t 1.443392 -s 1 -d 0 -p ack -e 40 -c 0 -i 46 -a 0 -x {1.0 0.0 1 ------- null}
h -t 1.443392 -s 1 -d 0 -p ack -e 40 -c 0 -i 46 -a 0 -x {1.0 0.0 -1 ------- null}
r -t 1.448 -s 0 -d 1 -p tcp -e 576 -c 0 -i 37 -a 0 -x {0.0 1.0 10721 ------- null}
+ -t 1.448 -s 1 -d 0 -p ack -e 40 -c 0 -i 47 -a 0 -x {1.0 0.0 1 ------- null}
- -t 1.448 -s 1 -d 0 -p ack -e 40 -c 0 -i 47 -a 0 -x {1.0 0.0 1 ------- null}
h -t 1.448 -s 1 -d 0 -p ack -e 40 -c 0 -i 47 -a 0 -x {1.0 0.0 -1 ------- null}
r -t 1.452608 -s 0 -d 1 -p tcp -e 576 -c 0 -i 38 -a 0 -x {0.0 1.0 11257 ------- null}
+ -t 1.452608 -s 1 -d 0 -p ack -e 40 -c 0 -i 48 -a 0 -x {1.0 0.0 1 ------- null}
- -t 1.452608 -s 1 -d 0 -p ack -e 40 -c 0 -i 48 -a 0 -x {1.0 0.0 1 ------- null}
h -t 1.452608 -s 1 -d 0 -p ack -e 40 -c 0 -i 48 -a 0 -x {1.0 0.0 -1 ------- null}
r -t 1.457216 -s 0 -d 1 -p tcp -e 576 -c 0 -i 39 -a 0 -x {0.0 1.0 11793 ------- null}
+ -t 1.457216 -s 1 -d 0 -p ack -e 40 -c 0 -i 49 -a 0 -x {1.0 0.0 1 ------- null}
- -t 1.457216 -s 1 -d 0 -p ack -e 40 -c 0 -i 49 -a 0 -x {1.0 0.0 1 ------- null}
h -t 1.457216 -s 1 -d 0 -p ack -e 40 -c 0 -i 49 -a 0 -x {1.0 0.0 -1 ------- null}
r -t 1.461824 -s 0 -d 1 -p tcp -e 576 -c 0 -i 40 -a 0 -x {0.0 1.0 12329 ------- null}
+ -t 1.461824 -s 1 -d 0 -p ack -e 40 -c 0 -i 50 -a 0 -x {1.0 0.0 1 ------- null}
- -t 1.461824 -s 1 -d 0 -p ack -e 40 -c 0 -i 50 -a 0 -x {1.0 0.0 1 ------- null}
h -t 1.461824 -s 1 -d 0 -p ack -e 40 -c 0 -i 50 -a 0 -x {1.0 0.0 -1 ------- null}
r -t 1.520672 -s 1 -d 0 -p ack -e 40 -c 0 -i 41 -a 0 -x {1.0 0.0 1 ------- null}
+ -t 1.520672 -s 0 -d 1 -p tcp -e 576 -c 0 -i 51 -a 0 -x {0.0 1.0 12865 ------- null}
- -t 1.520672 -s 0 -d 1 -p tcp -e 576 -c 0 -i 51 -a 0 -x {0.0 1.0 12865 ------- null}
h -t 1.520672 -s 0 -d 1 -p tcp -e 576 -c 0 -i 51 -a 0 -x {0.0 1.0 -1 ------- null}
r -t 1.52528 -s 1 -d 0 -p ack -e 40 -c 0 -i 42 -a 0 -x {1.0 0.0 1 ------- null}
+ -t 1.52528 -s 0 -d 1 -p tcp -e 576 -c 0 -i 52 -a 0 -x {0.0 1.0 13401 ------- null}
- -t 1.52528 -s 0 -d 1 -p tcp -e 576 -c 0 -i 52 -a 0 -x {0.0 1.0 13401 ------- null}
h -t 1.52528 -s 0 -d 1 -p tcp -e 576 -c 0 -i 52 -a 0 -x {0.0 1.0 -1 ------- null}
r -t 1.529888 -s 1 -d 0 -p ack -e 40 -c 0 -i 43 -a 0 -x {1.0 0.0 1 ------- null}
+ -t 1.529888 -s 0 -d 1 -p tcp -e 576 -c 0 -i 53 -a 0 -x {0.0 1.0 13937 ------- null}
- -t 1.529888 -s 0 -d 1 -p tcp -e 576 -c 0 -i 53 -a 0 -x {0.0 1.0 13937 ------- null}
h -t 1.529888 -s 0 -d 1 -p tcp -e 576 -c 0 -i 53 -a 0 -x {0.0 1.0 -1 ------- null}
r -t 1.534496 -s 1 -d 0 -p ack -e 40 -c 0 -i 44 -a 0 -x {1.0 0.0 1 ------- null}
+ -t 1.534496 -s 0 -d 1 -p tcp -e 576 -c 0 -i 54 -a 0 -x {0.0 1.0 14473 ------- null}
- -t 1.534496 -s 0 -d 1 -p tcp -e 576 -c 0 -i 54 -a 0 -x {0.0 1.0 14473 ------- null}
h -t 1.534496 -s 0 -d 1 -p tcp -e 576 -c 0 -i 54 -a 0 -x {0.0 1.0 -1 ------- null}
r -t 1.539104 -s 1 -d 0 -p ack -e 40 -c 0 -i 45 -a 0 -x {1.0 0.0 1 ------- null}
+ -t 1.539104 -s 0 -d 1 -p tcp -e 576 -c 0 -i 55 -a 0 -x {0.0 1.0 15009 ------- null}
- -t 1.539104 -s 0 -d 1 -p tcp -e 576 -c 0 -i 55 -a 0 -x {0.0 1.0 15009 ------- null}
h -t 1.539104 -s 0 -d 1 -p tcp -e 576 -c 0 -i 55 -a 0 -x {0.0 1.0 -1 ------- null}
r -t 1.543712 -s 1 -d 0 -p ack -e 40 -c 0 -i 46 -a 0 -x {1.0 0.0 1 ------- null}
+ -t 1.543712 -s 0 -d 1 -p tcp -e 576 -c 0 -i 56 -a 0 -x {0.0 1.0 15545 ------- null}
- -t 1.543712 -s 0 -d 1 -p tcp -e 576 -c 0 -i 56 -a 0 -x {0.0 1.0 15545 ------- null}
h -t 1.543712 -s 0 -d 1 -p tcp -e 576 -c 0 -i 56 -a 0 -x {0.0 1.0 -1 ------- null}
r -t 1.54832 -s 1 -d 0 -p ack -e 40 -c 0 -i 47 -a 0 -x {1.0 0.0 1 ------- null}
+ -t 1.54832 -s 0 -d 1 -p tcp -e 576 -c 0 -i 57 -a 0 -x {0.0 1.0 16081 ------- null}
- -t 1.54832 -s 0 -d 1 -p tcp -e 576 -c 0 -i 57 -a 0 -x {0.0 1.0 16081 ------- null}
h -t 1.54832 -s 0 -d 1 -p tcp -e 576 -c 0 -i 57 -a 0 -x {0.0 1.0 -1 ------- null}
r -t 1.552928 -s 1 -d 0 -p ack -e 40 -c 0 -i 48 -a 0 -x {1.0 0.0 1 ------- null}
+ -t 1.552928 -s 0 -d 1 -p tcp -e 576 -c 0 -i 58 -a 0 -x {0.0 1.0 16617 ------- null}
- -t 1.552928 -s 0 -d 1 -p tcp -e 576 -c 0 -i 58 -a 0 -x {0.0 1.0 16617 ------- null}
h -t 1.552928 -s 0 -d 1 -p tcp -e 576 -c 0 -i 58 -a 0 -x {0.0 1.0 -1 ------- null}
r -t 1.557536 -s 1 -d 0 -p ack -e 40 -c 0 -i 49 -a 0 -x {1.0 0.0 1 ------- null}
+ -t 1.557536 -s 0 -d 1 -p tcp -e 576 -c 0 -i 59 -a 0 -x {0.0 1.0 17153 ------- null}
- -t 1.557536 -s 0 -d 1 -p tcp -e 576 -c 0 -i 59 -a 0 -x {0.0 1.0 17153 ------- null}
h -t 1.557536 -s 0 -d 1 -p tcp -e 576 -c 0 -i 59 -a 0 -x {0.0 1.0 -1 ------- null}
r -t 1.562144 -s 1 -d 0 -p ack -e 40 -c 0 -i 50 -a 0 -x {1.0 0.0 1 ------- null}
+ -t 1.562144 -s 0 -d 1 -p tcp -e 576 -c 0 -i 60 -a 0 -x {0.0 1.0 17689 ------- null}
- -t 1.562144 -s 0 -d 1 -p tcp -e 576 -c 0 -i 60 -a 0 -x {0.0 1.0 17689 ------- null}
h -t 1.562144 -s 0 -d 1 -p tcp -e 576 -c 0 -i 60 -a 0 -x {0.0 1.0 -1 ------- null}
r -t 1.62528 -s 0 -d 1 -p tcp -e 576 -c 0 -i 51 -a 0 -x {0.0 1.0 12865 ------- null}
+ -t 1.62528 -s 1 -d 0 -p ack -e 40 -c 0 -i 61 -a 0 -x {1.0 0.0 1 ------- null}
- -t 1.62528 -s 1 -d 0 -p ack -e 40 -c 0 -i 61 -a 0 -x {1.0 0.0 1 ------- null}
h -t 1.62528 -s 1 -d 0 -p ack -e 40 -c 0 -i 61 -a 0 -x {1.0 0.0 -1 ------- null}
r -t 1.629888 -s 0 -d 1 -p tcp -e 576 -c 0 -i 52 -a 0 -x {0.0 1.0 13401 ------- null}
+ -t 1.629888 -s 1 -d 0 -p ack -e 40 -c 0 -i 62 -a 0 -x {1.0 0.0 1 ------- null}
- -t 1.629888 -s 1 -d 0 -p ack -e 40 -c 0 -i 62 -a 0 -x {1.0 0.0 1 ------- null}
h -t 1.629888 -s 1 -d 0 -p ack -e 40 -c 0 -i 62 -a 0 -x {1.0 0.0 -1 ------- null}
r -t 1.634496 -s 0 -d 1 -p tcp -e 576 -c 0 -i 53 -a 0 -x {0.0 1.0 13937 ------- null}
+ -t 1.634496 -s 1 -d 0 -p ack -e 40 -c 0 -i 63 -a 0 -x {1.0 0.0 1 ------- null}
- -t 1.634496 -s 1 -d 0 -p ack -e 40 -c 0 -i 63 -a 0 -x {1.0 0.0 1 ------- null}
h -t 1.634496 -s 1 -d 0 -p ack -e 40 -c 0 -i 63 -a 0 -x {1.0 0.0 -1 ------- null}
r -t 1.639104 -s 0 -d 1 -p tcp -e 576 -c 0 -i 54 -a 0 -x {0.0 1.0 14473 ------- null}
+ -t 1.639104 -s 1 -d 0 -p ack -e 40 -c 0 -i 64 -a 0 -x {1.0 0.0 1 ------- null}
- -t 1.639104 -s 1 -d 0 -p ack -e 40 -c 0 -i 64 -a 0 -x {1.0 0.0 1 ------- null}
h -t 1.639104 -s 1 -d 0 -p ack -e 40 -c 0 -i 64 -a 0 -x {1.0 0.0 -1 ------- null}
r -t 1.643712 -s 0 -d 1 -p tcp -e 576 -c 0 -i 55 -a 0 -x {0.0 1.0 15009 ------- null}
+ -t 1.643712 -s 1 -d 0 -p ack -e 40 -c 0 -i 65 -a 0 -x {1.0 0.0 1 ------- null}
- -t 1.643712 -s 1 -d 0 -p ack -e 40 -c 0 -i 65 -a 0 -x {1.0 0.0 1 ------- null}
h -t 1.643712 -s 1 -d 0 -p ack -e 40 -c 0 -i 65 -a 0 -x {1.0 0.0 -1 ------- null}
r -t 1.64832 -s 0 -d 1 -p tcp -e 576 -c 0 -i 56 -a 0 -x {0.0 1.0 15545 ------- null}
+ -t 1.64832 -s 1 -d 0 -p ack -e 40 -c 0 -i 66 -a 0 -x {1.0 0.0 1 ------- null}
- -t 1.64832 -s 1 -d 0 -p ack -e 40 -c 0 -i 66 -a 0 -x {1.0 0.0 1 ------- null}
h -t 1.64832 -s 1 -d 0 -p ack -e 40 -c 0 -i 66 -a 0 -x {1.0 0.0 -1 ------- null}
r -t 1.652928 -s 0 -d 1 -p tcp -e 576 -c 0 -i 57 -a 0 -x {0.0 1.0 16081 ------- null}
+ -t 1.652928 -s 1 -d 0 -p ack -e 40 -c 0 -i 67 -a 0 -x {1.0 0.0 1 ------- null}
- -t 1.652928 -s 1 -d 0 -p ack -e 40 -c 0 -i 67 -a 0 -x {1.0 0.0 1 ------- null}
h -t 1.652928 -s 1 -d 0 -p ack -e 40 -c 0 -i 67 -a 0 -x {1.0 0.0 -1 ------- null}
r -t 1.657536 -s 0 -d 1 -p tcp -e 576 -c 0 -i 58 -a 0 -x {0.0 1.0 16617 ------- null}
+ -t 1.657536 -s 1 -d 0 -p ack -e 40 -c 0 -i 68 -a 0 -x {1.0 0.0 1 ------- null}
- -t 1.657536 -s 1 -d 0 -p ack -e 40 -c 0 -i 68 -a 0 -x {1.0 0.0 1 ------- null}
h -t 1.657536 -s 1 -d 0 -p ack -e 40 -c 0 -i 68 -a 0 -x {1.0 0.0 -1 ------- null}
r -t 1.662144 -s 0 -d 1 -p tcp -e 576 -c 0 -i 59 -a 0 -x {0.0 1.0 17153 ------- null}
+ -t 1.662144 -s 1 -d 0 -p ack -e 40 -c 0 -i 69 -a 0 -x {1.0 0.0 1 ------- null}
- -t 1.662144 -s 1 -d 0 -p ack -e 40 -c 0 -i 69 -a 0 -x {1.0 0.0 1 ------- null}
h -t 1.662144 -s 1 -d 0 -p ack -e 40 -c 0 -i 69 -a 0 -x {1.0 0.0 -1 ------- null}
r -t 1.666752 -s 0 -d 1 -p tcp -e 576 -c 0 -i 60 -a 0 -x {0.0 1.0 17689 ------- null}
+ -t 1.666752 -s 1 -d 0 -p ack -e 40 -c 0 -i 70 -a 0 -x {1.0 0.0 1 ------- null}
- -t 1.666752 -s 1 -d 0 -p ack -e 40 -c 0 -i 70 -a 0 -x {1.0 0.0 1 ------- null}
h -t 1.666752 -s 1 -d 0 -p ack -e 40 -c 0 -i 70 -a 0 -x {1.0 0.0 -1 ------- null}
r -t 1.7256 -s 1 -d 0 -p ack -e 40 -c 0 -i 61 -a 0 -x {1.0 0.0 1 ------- null}
+ -t 1.7256 -s 0 -d 1 -p tcp -e 576 -c 0 -i 71 -a 0 -x {0.0 1.0 18225 ------- null}
- -t 1.7256 -s 0 -d 1 -p tcp -e 576 -c 0 -i 71 -a 0 -x {0.0 1.0 18225 ------- null}
h -t 1.7256 -s 0 -d 1 -p tcp -e 576 -c 0 -i 71 -a 0 -x {0.0 1.0 -1 ------- null}
r -t 1.730208 -s 1 -d 0 -p ack -e 40 -c 0 -i 62 -a 0 -x {1.0 0.0 1 ------- null}
+ -t 1.730208 -s 0 -d 1 -p tcp -e 576 -c 0 -i 72 -a 0 -x {0.0 1.0 18761 ------- null}
- -t 1.730208 -s 0 -d 1 -p tcp -e 576 -c 0 -i 72 -a 0 -x {0.0 1.0 18761 ------- null}
h -t 1.730208 -s 0 -d 1 -p tcp -e 576 -c 0 -i 72 -a 0 -x {0.0 1.0 -1 ------- null}
r -t 1.734816 -s 1 -d 0 -p ack -e 40 -c 0 -i 63 -a 0 -x {1.0 0.0 1 ------- null}
+ -t 1.734816 -s 0 -d 1 -p tcp -e 576 -c 0 -i 73 -a 0 -x {0.0 1.0 19297 ------- null}
- -t 1.734816 -s 0 -d 1 -p tcp -e 576 -c 0 -i 73 -a 0 -x {0.0 1.0 19297 ------- null}
h -t 1.734816 -s 0 -d 1 -p tcp -e 576 -c 0 -i 73 -a 0 -x {0.0 1.0 -1 ------- null}
r -t 1.739424 -s 1 -d 0 -p ack -e 40 -c 0 -i 64 -a 0 -x {1.0 0.0 1 ------- null}
+ -t 1.739424 -s 0 -d 1 -p tcp -e 576 -c 0 -i 74 -a 0 -x {0.0 1.0 19833 ------- null}
- -t 1.739424 -s 0 -d 1 -p tcp -e 576 -c 0 -i 74 -a 0 -x {0.0 1.0 19833 ------- null}
h -t 1.739424 -s 0 -d 1 -p tcp -e 576 -c 0 -i 74 -a 0 -x {0.0 1.0 -1 ------- null}
r -t 1.744032 -s 1 -d 0 -p ack -e 40 -c 0 -i 65 -a 0 -x {1.0 0.0 1 ------- null}
+ -t 1.744032 -s 0 -d 1 -p tcp -e 576 -c 0 -i 75 -a 0 -x {0.0 1.0 20369 ------- null}
- -t 1.744032 -s 0 -d 1 -p tcp -e 576 -c 0 -i 75 -a 0 -x {0.0 1.0 20369 ------- null}
h -t 1.744032 -s 0 -d 1 -p tcp -e 576 -c 0 -i 75 -a 0 -x {0.0 1.0 -1 ------- null}
r -t 1.74864 -s 1 -d 0 -p ack -e 40 -c 0 -i 66 -a 0 -x {1.0 0.0 1 ------- null}
+ -t 1.74864 -s 0 -d 1 -p tcp -e 576 -c 0 -i 76 -a 0 -x {0.0 1.0 20905 ------- null}
- -t 1.74864 -s 0 -d 1 -p tcp -e 576 -c 0 -i 76 -a 0 -x {0.0 1.0 20905 ------- null}
h -t 1.74864 -s 0 -d 1 -p tcp -e 576 -c 0 -i 76 -a 0 -x {0.0 1.0 -1 ------- null}
r -t 1.753248 -s 1 -d 0 -p ack -e 40 -c 0 -i 67 -a 0 -x {1.0 0.0 1 ------- null}
+ -t 1.753248 -s 0 -d 1 -p tcp -e 576 -c 0 -i 77 -a 0 -x {0.0 1.0 21441 ------- null}
- -t 1.753248 -s 0 -d 1 -p tcp -e 576 -c 0 -i 77 -a 0 -x {0.0 1.0 21441 ------- null}
h -t 1.753248 -s 0 -d 1 -p tcp -e 576 -c 0 -i 77 -a 0 -x {0.0 1.0 -1 ------- null}
r -t 1.757856 -s 1 -d 0 -p ack -e 40 -c 0 -i 68 -a 0 -x {1.0 0.0 1 ------- null}
+ -t 1.757856 -s 0 -d 1 -p tcp -e 576 -c 0 -i 78 -a 0 -x {0.0 1.0 21977 ------- null}
- -t 1.757856 -s 0 -d 1 -p tcp -e 576 -c 0 -i 78 -a 0 -x {0.0 1.0 21977 ------- null}
h -t 1.757856 -s 0 -d 1 -p tcp -e 576 -c 0 -i 78 -a 0 -x {0.0 1.0 -1 ------- null}
r -t 1.762464 -s 1 -d 0 -p ack -e 40 -c 0 -i 69 -a 0 -x {1.0 0.0 1 ------- null}
+ -t 1.762464 -s 0 -d 1 -p tcp -e 576 -c 0 -i 79 -a 0 -x {0.0 1.0 22513 ------- null}
- -t 1.762464 -s 0 -d 1 -p tcp -e 576 -c 0 -i 79 -a 0 -x {0.0 1.0 22513 ------- null}
h -t 1.762464 -s 0 -d 1 -p tcp -e 576 -c 0 -i 79 -a 0 -x {0.0 1.0 -1 ------- null}
r -t 1.767072 -s 1 -d 0 -p ack -e 40 -c 0 -i 70 -a 0 -x {1.0 0.0 1 ------- null}
+ -t 1.767072 -s 0 -d 1 -p tcp -e 576 -c 0 -i 80 -a 0 -x {0.0 1.0 23049 ------- null}
- -t 1.767072 -s 0 -d 1 -p tcp -e 576 -c 0 -i 80 -a 0 -x {0.0 1.0 23049 ------- null}
h -t 1.767072 -s 0 -d 1 -p tcp -e 576 -c 0 -i 80 -a 0 -x {0.0 1.0 -1 ------- null}
r -t 1.830208 -s 0 -d 1 -p tcp -e 576 -c 0 -i 71 -a 0 -x {0.0 1.0 18225 ------- null}
+ -t 1.830208 -s 1 -d 0 -p ack -e 40 -c 0 -i 81 -a 0 -x {1.0 0.0 1 ------- null}
- -t 1.830208 -s 1 -d 0 -p ack -e 40 -c 0 -i 81 -a 0 -x {1.0 0.0 1 ------- null}
h -t 1.830208 -s 1 -d 0 -p ack -e 40 -c 0 -i 81 -a 0 -x {1.0 0.0 -1 ------- null}
r -t 1.834816 -s 0 -d 1 -p tcp -e 576 -c 0 -i 72 -a 0 -x {0.0 1.0 18761 ------- null}
+ -t 1.834816 -s 1 -d 0 -p ack -e 40 -c 0 -i 82 -a 0 -x {1.0 0.0 1 ------- null}
- -t 1.834816 -s 1 -d 0 -p ack -e 40 -c 0 -i 82 -a 0 -x {1.0 0.0 1 ------- null}
h -t 1.834816 -s 1 -d 0 -p ack -e 40 -c 0 -i 82 -a 0 -x {1.0 0.0 -1 ------- null}
r -t 1.839424 -s 0 -d 1 -p tcp -e 576 -c 0 -i 73 -a 0 -x {0.0 1.0 19297 ------- null}
+ -t 1.839424 -s 1 -d 0 -p ack -e 40 -c 0 -i 83 -a 0 -x {1.0 0.0 1 ------- null}
- -t 1.839424 -s 1 -d 0 -p ack -e 40 -c 0 -i 83 -a 0 -x {1.0 0.0 1 ------- null}
h -t 1.839424 -s 1 -d 0 -p ack -e 40 -c 0 -i 83 -a 0 -x {1.0 0.0 -1 ------- null}
r -t 1.844032 -s 0 -d 1 -p tcp -e 576 -c 0 -i 74 -a 0 -x {0.0 1.0 19833 ------- null}
+ -t 1.844032 -s 1 -d 0 -p ack -e 40 -c 0 -i 84 -a 0 -x {1.0 0.0 1 ------- null}
- -t 1.844032 -s 1 -d 0 -p ack -e 40 -c 0 -i 84 -a 0 -x {1.0 0.0 1 ------- null}
h -t 1.844032 -s 1 -d 0 -p ack -e 40 -c 0 -i 84 -a 0 -x {1.0 0.0 -1 ------- null}
r -t 1.84864 -s 0 -d 1 -p tcp -e 576 -c 0 -i 75 -a 0 -x {0.0 1.0 20369 ------- null}
+ -t 1.84864 -s 1 -d 0 -p ack -e 40 -c 0 -i 85 -a 0 -x {1.0 0.0 1 ------- null}
- -t 1.84864 -s 1 -d 0 -p ack -e 40 -c 0 -i 85 -a 0 -x {1.0 0.0 1 ------- null}
h -t 1.84864 -s 1 -d 0 -p ack -e 40 -c 0 -i 85 -a 0 -x {1.0 0.0 -1 ------- null}
r -t 1.853248 -s 0 -d 1 -p tcp -e 576 -c 0 -i 76 -a 0 -x {0.0 1.0 20905 ------- null}
+ -t 1.853248 -s 1 -d 0 -p ack -e 40 -c 0 -i 86 -a 0 -x {1.0 0.0 1 ------- null}
- -t 1.853248 -s 1 -d 0 -p ack -e 40 -c 0 -i 86 -a 0 -x {1.0 0.0 1 ------- null}
h -t 1.853248 -s 1 -d 0 -p ack -e 40 -c 0 -i 86 -a 0 -x {1.0 0.0 -1 ------- null}
r -t 1.857856 -s 0 -d 1 -p tcp -e 576 -c 0 -i 77 -a 0 -x {0.0 1.0 21441 ------- null}
+ -t 1.857856 -s 1 -d 0 -p ack -e 40 -c 0 -i 87 -a 0 -x {1.0 0.0 1 ------- null}
- -t 1.857856 -s 1 -d 0 -p ack -e 40 -c 0 -i 87 -a 0 -x {1.0 0.0 1 ------- null}
h -t 1.857856 -s 1 -d 0 -p ack -e 40 -c 0 -i 87 -a 0 -x {1.0 0.0 -1 ------- null}
r -t 1.862464 -s 0 -d 1 -p tcp -e 576 -c 0 -i 78 -a 0 -x {0.0 1.0 21977 ------- null}
+ -t 1.862464 -s 1 -d 0 -p ack -e 40 -c 0 -i 88 -a 0 -x {1.0 0.0 1 ------- null}
- -t 1.862464 -s 1 -d 0 -p ack -e 40 -c 0 -i 88 -a 0 -x {1.0 0.0 1 ------- null}
h -t 1.862464 -s 1 -d 0 -p ack -e 40 -c 0 -i 88 -a 0 -x {1.0 0.0 -1 ------- null}
r -t 1.867072 -s 0 -d 1 -p tcp -e 576 -c 0 -i 79 -a 0 -x {0.0 1.0 22513 ------- null}
+ -t 1.867072 -s 1 -d 0 -p ack -e 40 -c 0 -i 89 -a 0 -x {1.0 0.0 1 ------- null}
- -t 1.867072 -s 1 -d 0 -p ack -e 40 -c 0 -i 89 -a 0 -x {1.0 0.0 1 ------- null}
h -t 1.867072 -s 1 -d 0 -p ack -e 40 -c 0 -i 89 -a 0 -x {1.0 0.0 -1 ------- null}
r -t 1.87168 -s 0 -d 1 -p tcp -e 576 -c 0 -i 80 -a 0 -x {0.0 1.0 23049 ------- null}
+ -t 1.87168 -s 1 -d 0 -p ack -e 40 -c 0 -i 90 -a 0 -x {1.0 0.0 1 ------- null}
- -t 1.87168 -s 1 -d 0 -p ack -e 40 -c 0 -i 90 -a 0 -x {1.0 0.0 1 ------- null}
h -t 1.87168 -s 1 -d 0 -p ack -e 40 -c 0 -i 90 -a 0 -x {1.0 0.0 -1 ------- null}
r -t 1.930528 -s 1 -d 0 -p ack -e 40 -c 0 -i 81 -a 0 -x {1.0 0.0 1 ------- null}
+ -t 1.930528 -s 0 -d 1 -p tcp -e 576 -c 0 -i 91 -a 0 -x {0.0 1.0 23585 ------- null}
- -t 1.930528 -s 0 -d 1 -p tcp -e 576 -c 0 -i 91 -a 0 -x {0.0 1.0 23585 ------- null}
h -t 1.930528 -s 0 -d 1 -p tcp -e 576 -c 0 -i 91 -a 0 -x {0.0 1.0 -1 ------- null}
r -t 1.935136 -s 1 -d 0 -p ack -e 40 -c 0 -i 82 -a 0 -x {1.0 0.0 1 ------- null}