0.00000  0  0  10 0  cwnd_ 1.000 
0.00000  1  0  10 1  cwnd_ 1.000 
0.00000  2  0  10 2  cwnd_ 1.000 
0.00000  3  0  10 3  cwnd_ 1.000 
V -t * -v 1.0a5 -a 0
A -t * -n 1 -p 0 -o 0x7fffffff -c 30 -a 1
A -t * -h 1 -m 1073741823 -s 0
c -t * -i 4 -n cyan
c -t * -i 5 -n maroon
c -t * -i 1 -n red
c -t * -i 2 -n blue
c -t * -i 3 -n yellow
n -t * -a 8 -s 8 -S UP -v square -c black -i black
n -t * -a 4 -s 4 -S UP -v box -c black -i black
n -t * -a 0 -s 0 -S UP -v circle -c black -i black
n -t * -a 10 -s 10 -S UP -v hexagon -c black -i black
n -t * -a 9 -s 9 -S UP -v square -c black -i black
n -t * -a 5 -s 5 -S UP -v square -c black -i black
n -t * -a 1 -s 1 -S UP -v circle -c black -i black
n -t * -a 6 -s 6 -S UP -v square -c black -i black
n -t * -a 2 -s 2 -S UP -v circle -c black -i black
n -t * -a 7 -s 7 -S UP -v square -c black -i black
n -t * -a 3 -s 3 -S UP -v circle -c black -i black
l -t * -s 0 -d 4 -S UP -r 5000000 -D 0.050000000000000003 -c black -o down-right
l -t * -s 1 -d 4 -S UP -r 5000000 -D 0.050000000000000003 -c black -o right
l -t * -s 2 -d 4 -S UP -r 5000000 -D 0.050000000000000003 -c black -o up-right
l -t * -s 3 -d 4 -S UP -r 5000000 -D 0.050000000000000003 -c black -o up
l -t * -s 4 -d 5 -S UP -r 5000000 -D 0.050000000000000003 -c black -o right
l -t * -s 5 -d 6 -S UP -r 150000 -D 0.050000000000000003 -c black -o down
l -t * -s 6 -d 7 -S UP -r 300000 -D 0.050000000000000003 -c black -o right
l -t * -s 7 -d 8 -S UP -r 100000 -D 0.050000000000000003 -c black -o up
l -t * -s 8 -d 9 -S UP -r 300000 -D 0.050000000000000003 -c black -o right
l -t * -s 9 -d 10 -S UP -r 300000 -D 0.050000000000000003 -c black -o up-right
q -t * -s 2 -d 4 -a 0.5
q -t * -s 4 -d 2 -a 0.5
q -t * -s 3 -d 4 -a 0.5
q -t * -s 4 -d 3 -a 0.5
q -t * -s 4 -d 5 -a 0.1
q -t * -s 5 -d 4 -a 0.1
q -t * -s 9 -d 10 -a 0.5
q -t * -s 6 -d 5 -a 0.1
q -t * -s 5 -d 6 -a 0.1
q -t * -s 7 -d 6 -a 0.1
q -t * -s 6 -d 7 -a 0.1
q -t * -s 8 -d 7 -a 0.1
q -t * -s 7 -d 8 -a 0.1
q -t * -s 9 -d 8 -a 0.5
q -t * -s 8 -d 9 -a 0.5
q -t * -s 10 -d 9 -a 0.5
q -t * -s 0 -d 4 -a 0.1
q -t * -s 4 -d 0 -a 0.1
q -t * -s 1 -d 4 -a 0.1
q -t * -s 4 -d 1 -a 0.1
a -t 0 -s 1 -d 10 -n tcp1
a -t 0 -s 2 -d 10 -n tcp2
a -t 0 -s 3 -d 10 -n tcp3
a -t 0 -s 0 -d 10 -n tcp
n -t 0 -s 0 -S DLABEL -l "Client1" -L ""
n -t 0 -s 1 -S DLABEL -l "Client2" -L ""
n -t 0 -s 2 -S DLABEL -l "Client3" -L ""
n -t 0 -s 3 -S DLABEL -l "Client4" -L ""
n -t 0 -s 4 -S DLABEL -l "Router1" -L ""
n -t 0 -s 5 -S DLABEL -l "Router2" -L ""
n -t 0 -s 6 -S DLABEL -l "Router3" -L ""
n -t 0 -s 7 -S DLABEL -l "Router4" -L ""
n -t 0 -s 8 -S DLABEL -l "Router5" -L ""
n -t 0 -s 9 -S DLABEL -l "Router6" -L ""
n -t 0 -s 10 -S DLABEL -l "Endserver" -L ""
+ -t 0.5 -s 0 -d 4 -p tcp -e 40 -c 4 -i 0 -a 4 -x {0.0 10.0 0 ------- null}
- -t 0.5 -s 0 -d 4 -p tcp -e 40 -c 4 -i 0 -a 4 -x {0.0 10.0 0 ------- null}
h -t 0.5 -s 0 -d 4 -p tcp -e 40 -c 4 -i 0 -a 4 -x {0.0 10.0 -1 ------- null}
r -t 0.550064 -s 0 -d 4 -p tcp -e 40 -c 4 -i 0 -a 4 -x {0.0 10.0 0 ------- null}
+ -t 0.550064 -s 4 -d 5 -p tcp -e 40 -c 4 -i 0 -a 4 -x {0.0 10.0 0 ------- null}
- -t 0.550064 -s 4 -d 5 -p tcp -e 40 -c 4 -i 0 -a 4 -x {0.0 10.0 0 ------- null}
h -t 0.550064 -s 4 -d 5 -p tcp -e 40 -c 4 -i 0 -a 4 -x {0.0 10.0 -1 ------- null}
+ -t 0.58 -s 1 -d 4 -p tcp -e 40 -c 2 -i 1 -a 2 -x {1.0 10.1 0 ------- null}
- -t 0.58 -s 1 -d 4 -p tcp -e 40 -c 2 -i 1 -a 2 -x {1.0 10.1 0 ------- null}
h -t 0.58 -s 1 -d 4 -p tcp -e 40 -c 2 -i 1 -a 2 -x {1.0 10.1 -1 ------- null}
+ -t 0.6 -s 3 -d 4 -p tcp -e 40 -c 3 -i 2 -a 3 -x {3.0 10.3 0 ------- null}
- -t 0.6 -s 3 -d 4 -p tcp -e 40 -c 3 -i 2 -a 3 -x {3.0 10.3 0 ------- null}
h -t 0.6 -s 3 -d 4 -p tcp -e 40 -c 3 -i 2 -a 3 -x {3.0 10.3 -1 ------- null}
r -t 0.600128 -s 4 -d 5 -p tcp -e 40 -c 4 -i 0 -a 4 -x {0.0 10.0 0 ------- null}
+ -t 0.600128 -s 5 -d 6 -p tcp -e 40 -c 4 -i 0 -a 4 -x {0.0 10.0 0 ------- null}
- -t 0.600128 -s 5 -d 6 -p tcp -e 40 -c 4 -i 0 -a 4 -x {0.0 10.0 0 ------- null}
h -t 0.600128 -s 5 -d 6 -p tcp -e 40 -c 4 -i 0 -a 4 -x {0.0 10.0 -1 ------- null}
r -t 0.630064 -s 1 -d 4 -p tcp -e 40 -c 2 -i 1 -a 2 -x {1.0 10.1 0 ------- null}
+ -t 0.630064 -s 4 -d 5 -p tcp -e 40 -c 2 -i 1 -a 2 -x {1.0 10.1 0 ------- null}
- -t 0.630064 -s 4 -d 5 -p tcp -e 40 -c 2 -i 1 -a 2 -x {1.0 10.1 0 ------- null}
h -t 0.630064 -s 4 -d 5 -p tcp -e 40 -c 2 -i 1 -a 2 -x {1.0 10.1 -1 ------- null}
+ -t 0.65 -s 2 -d 4 -p tcp -e 40 -c 0 -i 3 -a 0 -x {2.0 10.2 0 ------- null}
- -t 0.65 -s 2 -d 4 -p tcp -e 40 -c 0 -i 3 -a 0 -x {2.0 10.2 0 ------- null}
h -t 0.65 -s 2 -d 4 -p tcp -e 40 -c 0 -i 3 -a 0 -x {2.0 10.2 -1 ------- null}
r -t 0.650064 -s 3 -d 4 -p tcp -e 40 -c 3 -i 2 -a 3 -x {3.0 10.3 0 ------- null}
+ -t 0.650064 -s 4 -d 5 -p tcp -e 40 -c 3 -i 2 -a 3 -x {3.0 10.3 0 ------- null}
- -t 0.650064 -s 4 -d 5 -p tcp -e 40 -c 3 -i 2 -a 3 -x {3.0 10.3 0 ------- null}
h -t 0.650064 -s 4 -d 5 -p tcp -e 40 -c 3 -i 2 -a 3 -x {3.0 10.3 -1 ------- null}
r -t 0.652261333333333 -s 5 -d 6 -p tcp -e 40 -c 4 -i 0 -a 4 -x {0.0 10.0 0 ------- null}
+ -t 0.652261333333333 -s 6 -d 7 -p tcp -e 40 -c 4 -i 0 -a 4 -x {0.0 10.0 0 ------- null}
- -t 0.652261333333333 -s 6 -d 7 -p tcp -e 40 -c 4 -i 0 -a 4 -x {0.0 10.0 0 ------- null}
h -t 0.652261333333333 -s 6 -d 7 -p tcp -e 40 -c 4 -i 0 -a 4 -x {0.0 10.0 -1 ------- null}
r -t 0.680128 -s 4 -d 5 -p tcp -e 40 -c 2 -i 1 -a 2 -x {1.0 10.1 0 ------- null}
+ -t 0.680128 -s 5 -d 6 -p tcp -e 40 -c 2 -i 1 -a 2 -x {1.0 10.1 0 ------- null}
- -t 0.680128 -s 5 -d 6 -p tcp -e 40 -c 2 -i 1 -a 2 -x {1.0 10.1 0 ------- null}
h -t 0.680128 -s 5 -d 6 -p tcp -e 40 -c 2 -i 1 -a 2 -x {1.0 10.1 -1 ------- null}
r -t 0.700064 -s 2 -d 4 -p tcp -e 40 -c 0 -i 3 -a 0 -x {2.0 10.2 0 ------- null}
+ -t 0.700064 -s 4 -d 5 -p tcp -e 40 -c 0 -i 3 -a 0 -x {2.0 10.2 0 ------- null}
- -t 0.700064 -s 4 -d 5 -p tcp -e 40 -c 0 -i 3 -a 0 -x {2.0 10.2 0 ------- null}
h -t 0.700064 -s 4 -d 5 -p tcp -e 40 -c 0 -i 3 -a 0 -x {2.0 10.2 -1 ------- null}
r -t 0.700128 -s 4 -d 5 -p tcp -e 40 -c 3 -i 2 -a 3 -x {3.0 10.3 0 ------- null}
+ -t 0.700128 -s 5 -d 6 -p tcp -e 40 -c 3 -i 2 -a 3 -x {3.0 10.3 0 ------- null}
- -t 0.700128 -s 5 -d 6 -p tcp -e 40 -c 3 -i 2 -a 3 -x {3.0 10.3 0 ------- null}
h -t 0.700128 -s 5 -d 6 -p tcp -e 40 -c 3 -i 2 -a 3 -x {3.0 10.3 -1 ------- null}
r -t 0.703328 -s 6 -d 7 -p tcp -e 40 -c 4 -i 0 -a 4 -x {0.0 10.0 0 ------- null}
+ -t 0.703328 -s 7 -d 8 -p tcp -e 40 -c 4 -i 0 -a 4 -x {0.0 10.0 0 ------- null}
- -t 0.703328 -s 7 -d 8 -p tcp -e 40 -c 4 -i 0 -a 4 -x {0.0 10.0 0 ------- null}
h -t 0.703328 -s 7 -d 8 -p tcp -e 40 -c 4 -i 0 -a 4 -x {0.0 10.0 -1 ------- null}
r -t 0.732261333333333 -s 5 -d 6 -p tcp -e 40 -c 2 -i 1 -a 2 -x {1.0 10.1 0 ------- null}
+ -t 0.732261333333333 -s 6 -d 7 -p tcp -e 40 -c 2 -i 1 -a 2 -x {1.0 10.1 0 ------- null}
- -t 0.732261333333333 -s 6 -d 7 -p tcp -e 40 -c 2 -i 1 -a 2 -x {1.0 10.1 0 ------- null}
h -t 0.732261333333333 -s 6 -d 7 -p tcp -e 40 -c 2 -i 1 -a 2 -x {1.0 10.1 -1 ------- null}
r -t 0.750128 -s 4 -d 5 -p tcp -e 40 -c 0 -i 3 -a 0 -x {2.0 10.2 0 ------- null}
+ -t 0.750128 -s 5 -d 6 -p tcp -e 40 -c 0 -i 3 -a 0 -x {2.0 10.2 0 ------- null}
- -t 0.750128 -s 5 -d 6 -p tcp -e 40 -c 0 -i 3 -a 0 -x {2.0 10.2 0 ------- null}
h -t 0.750128 -s 5 -d 6 -p tcp -e 40 -c 0 -i 3 -a 0 -x {2.0 10.2 -1 ------- null}
r -t 0.752261333333333 -s 5 -d 6 -p tcp -e 40 -c 3 -i 2 -a 3 -x {3.0 10.3 0 ------- null}
+ -t 0.752261333333333 -s 6 -d 7 -p tcp -e 40 -c 3 -i 2 -a 3 -x {3.0 10.3 0 ------- null}
- -t 0.752261333333333 -s 6 -d 7 -p tcp -e 40 -c 3 -i 2 -a 3 -x {3.0 10.3 0 ------- null}
h -t 0.752261333333333 -s 6 -d 7 -p tcp -e 40 -c 3 -i 2 -a 3 -x {3.0 10.3 -1 ------- null}
r -t 0.756528 -s 7 -d 8 -p tcp -e 40 -c 4 -i 0 -a 4 -x {0.0 10.0 0 ------- null}
+ -t 0.756528 -s 8 -d 9 -p tcp -e 40 -c 4 -i 0 -a 4 -x {0.0 10.0 0 ------- null}
- -t 0.756528 -s 8 -d 9 -p tcp -e 40 -c 4 -i 0 -a 4 -x {0.0 10.0 0 ------- null}
h -t 0.756528 -s 8 -d 9 -p tcp -e 40 -c 4 -i 0 -a 4 -x {0.0 10.0 -1 ------- null}
r -t 0.783328 -s 6 -d 7 -p tcp -e 40 -c 2 -i 1 -a 2 -x {1.0 10.1 0 ------- null}
+ -t 0.783328 -s 7 -d 8 -p tcp -e 40 -c 2 -i 1 -a 2 -x {1.0 10.1 0 ------- null}
- -t 0.783328 -s 7 -d 8 -p tcp -e 40 -c 2 -i 1 -a 2 -x {1.0 10.1 0 ------- null}
h -t 0.783328 -s 7 -d 8 -p tcp -e 40 -c 2 -i 1 -a 2 -x {1.0 10.1 -1 ------- null}
r -t 0.802261333333333 -s 5 -d 6 -p tcp -e 40 -c 0 -i 3 -a 0 -x {2.0 10.2 0 ------- null}
+ -t 0.802261333333333 -s 6 -d 7 -p tcp -e 40 -c 0 -i 3 -a 0 -x {2.0 10.2 0 ------- null}
- -t 0.802261333333333 -s 6 -d 7 -p tcp -e 40 -c 0 -i 3 -a 0 -x {2.0 10.2 0 ------- null}
h -t 0.802261333333333 -s 6 -d 7 -p tcp -e 40 -c 0 -i 3 -a 0 -x {2.0 10.2 -1 ------- null}
r -t 0.803328 -s 6 -d 7 -p tcp -e 40 -c 3 -i 2 -a 3 -x {3.0 10.3 0 ------- null}
+ -t 0.803328 -s 7 -d 8 -p tcp -e 40 -c 3 -i 2 -a 3 -x {3.0 10.3 0 ------- null}
- -t 0.803328 -s 7 -d 8 -p tcp -e 40 -c 3 -i 2 -a 3 -x {3.0 10.3 0 ------- null}
h -t 0.803328 -s 7 -d 8 -p tcp -e 40 -c 3 -i 2 -a 3 -x {3.0 10.3 -1 ------- null}
r -t 0.807594666666667 -s 8 -d 9 -p tcp -e 40 -c 4 -i 0 -a 4 -x {0.0 10.0 0 ------- null}
+ -t 0.807594666666667 -s 9 -d 10 -p tcp -e 40 -c 4 -i 0 -a 4 -x {0.0 10.0 0 ------- null}
- -t 0.807594666666667 -s 9 -d 10 -p tcp -e 40 -c 4 -i 0 -a 4 -x {0.0 10.0 0 ------- null}
h -t 0.807594666666667 -s 9 -d 10 -p tcp -e 40 -c 4 -i 0 -a 4 -x {0.0 10.0 -1 ------- null}
r -t 0.836528 -s 7 -d 8 -p tcp -e 40 -c 2 -i 1 -a 2 -x {1.0 10.1 0 ------- null}
+ -t 0.836528 -s 8 -d 9 -p tcp -e 40 -c 2 -i 1 -a 2 -x {1.0 10.1 0 ------- null}
- -t 0.836528 -s 8 -d 9 -p tcp -e 40 -c 2 -i 1 -a 2 -x {1.0 10.1 0 ------- null}
h -t 0.836528 -s 8 -d 9 -p tcp -e 40 -c 2 -i 1 -a 2 -x {1.0 10.1 -1 ------- null}
r -t 0.853328 -s 6 -d 7 -p tcp -e 40 -c 0 -i 3 -a 0 -x {2.0 10.2 0 ------- null}
+ -t 0.853328 -s 7 -d 8 -p tcp -e 40 -c 0 -i 3 -a 0 -x {2.0 10.2 0 ------- null}
- -t 0.853328 -s 7 -d 8 -p tcp -e 40 -c 0 -i 3 -a 0 -x {2.0 10.2 0 ------- null}
h -t 0.853328 -s 7 -d 8 -p tcp -e 40 -c 0 -i 3 -a 0 -x {2.0 10.2 -1 ------- null}
r -t 0.856528 -s 7 -d 8 -p tcp -e 40 -c 3 -i 2 -a 3 -x {3.0 10.3 0 ------- null}
+ -t 0.856528 -s 8 -d 9 -p tcp -e 40 -c 3 -i 2 -a 3 -x {3.0 10.3 0 ------- null}
- -t 0.856528 -s 8 -d 9 -p tcp -e 40 -c 3 -i 2 -a 3 -x {3.0 10.3 0 ------- null}
h -t 0.856528 -s 8 -d 9 -p tcp -e 40 -c 3 -i 2 -a 3 -x {3.0 10.3 -1 ------- null}
r -t 0.858661333333333 -s 9 -d 10 -p tcp -e 40 -c 4 -i 0 -a 4 -x {0.0 10.0 0 ------- null}
+ -t 0.858661333333333 -s 10 -d 9 -p ack -e 40 -c 4 -i 4 -a 4 -x {10.0 0.0 0 ------- null}
- -t 0.858661333333333 -s 10 -d 9 -p ack -e 40 -c 4 -i 4 -a 4 -x {10.0 0.0 0 ------- null}
h -t 0.858661333333333 -s 10 -d 9 -p ack -e 40 -c 4 -i 4 -a 4 -x {10.0 0.0 -1 ------- null}
r -t 0.887594666666667 -s 8 -d 9 -p tcp -e 40 -c 2 -i 1 -a 2 -x {1.0 10.1 0 ------- null}
+ -t 0.887594666666667 -s 9 -d 10 -p tcp -e 40 -c 2 -i 1 -a 2 -x {1.0 10.1 0 ------- null}
- -t 0.887594666666667 -s 9 -d 10 -p tcp -e 40 -c 2 -i 1 -a 2 -x {1.0 10.1 0 ------- null}
h -t 0.887594666666667 -s 9 -d 10 -p tcp -e 40 -c 2 -i 1 -a 2 -x {1.0 10.1 -1 ------- null}
r -t 0.906528 -s 7 -d 8 -p tcp -e 40 -c 0 -i 3 -a 0 -x {2.0 10.2 0 ------- null}
+ -t 0.906528 -s 8 -d 9 -p tcp -e 40 -c 0 -i 3 -a 0 -x {2.0 10.2 0 ------- null}
- -t 0.906528 -s 8 -d 9 -p tcp -e 40 -c 0 -i 3 -a 0 -x {2.0 10.2 0 ------- null}
h -t 0.906528 -s 8 -d 9 -p tcp -e 40 -c 0 -i 3 -a 0 -x {2.0 10.2 -1 ------- null}
r -t 0.907594666666667 -s 8 -d 9 -p tcp -e 40 -c 3 -i 2 -a 3 -x {3.0 10.3 0 ------- null}
+ -t 0.907594666666667 -s 9 -d 10 -p tcp -e 40 -c 3 -i 2 -a 3 -x {3.0 10.3 0 ------- null}
- -t 0.907594666666667 -s 9 -d 10 -p tcp -e 40 -c 3 -i 2 -a 3 -x {3.0 10.3 0 ------- null}
h -t 0.907594666666667 -s 9 -d 10 -p tcp -e 40 -c 3 -i 2 -a 3 -x {3.0 10.3 -1 ------- null}
r -t 0.909728 -s 10 -d 9 -p ack -e 40 -c 4 -i 4 -a 4 -x {10.0 0.0 0 ------- null}
+ -t 0.909728 -s 9 -d 8 -p ack -e 40 -c 4 -i 4 -a 4 -x {10.0 0.0 0 ------- null}
- -t 0.909728 -s 9 -d 8 -p ack -e 40 -c 4 -i 4 -a 4 -x {10.0 0.0 0 ------- null}
h -t 0.909728 -s 9 -d 8 -p ack -e 40 -c 4 -i 4 -a 4 -x {10.0 0.0 -1 ------- null}
r -t 0.938661333333333 -s 9 -d 10 -p tcp -e 40 -c 2 -i 1 -a 2 -x {1.0 10.1 0 ------- null}
+ -t 0.938661333333333 -s 10 -d 9 -p ack -e 40 -c 2 -i 5 -a 2 -x {10.1 1.0 0 ------- null}
- -t 0.938661333333333 -s 10 -d 9 -p ack -e 40 -c 2 -i 5 -a 2 -x {10.1 1.0 0 ------- null}
h -t 0.938661333333333 -s 10 -d 9 -p ack -e 40 -c 2 -i 5 -a 2 -x {10.1 1.0 -1 ------- null}
r -t 0.957594666666667 -s 8 -d 9 -p tcp -e 40 -c 0 -i 3 -a 0 -x {2.0 10.2 0 ------- null}
+ -t 0.957594666666667 -s 9 -d 10 -p tcp -e 40 -c 0 -i 3 -a 0 -x {2.0 10.2 0 ------- null}
- -t 0.957594666666667 -s 9 -d 10 -p tcp -e 40 -c 0 -i 3 -a 0 -x {2.0 10.2 0 ------- null}
h -t 0.957594666666667 -s 9 -d 10 -p tcp -e 40 -c 0 -i 3 -a 0 -x {2.0 10.2 -1 ------- null}
r -t 0.958661333333333 -s 9 -d 10 -p tcp -e 40 -c 3 -i 2 -a 3 -x {3.0 10.3 0 ------- null}
+ -t 0.958661333333333 -s 10 -d 9 -p ack -e 40 -c 3 -i 6 -a 3 -x {10.3 3.0 0 ------- null}
- -t 0.958661333333333 -s 10 -d 9 -p ack -e 40 -c 3 -i 6 -a 3 -x {10.3 3.0 0 ------- null}
h -t 0.958661333333333 -s 10 -d 9 -p ack -e 40 -c 3 -i 6 -a 3 -x {10.3 3.0 -1 ------- null}
r -t 0.960794666666667 -s 9 -d 8 -p ack -e 40 -c 4 -i 4 -a 4 -x {10.0 0.0 0 ------- null}
+ -t 0.960794666666667 -s 8 -d 7 -p ack -e 40 -c 4 -i 4 -a 4 -x {10.0 0.0 0 ------- null}
- -t 0.960794666666667 -s 8 -d 7 -p ack -e 40 -c 4 -i 4 -a 4 -x {10.0 0.0 0 ------- null}
h -t 0.960794666666667 -s 8 -d 7 -p ack -e 40 -c 4 -i 4 -a 4 -x {10.0 0.0 -1 ------- null}
r -t 0.989728 -s 10 -d 9 -p ack -e 40 -c 2 -i 5 -a 2 -x {10.1 1.0 0 ------- null}
+ -t 0.989728 -s 9 -d 8 -p ack -e 40 -c 2 -i 5 -a 2 -x {10.1 1.0 0 ------- null}
- -t 0.989728 -s 9 -d 8 -p ack -e 40 -c 2 -i 5 -a 2 -x {10.1 1.0 0 ------- null}
h -t 0.989728 -s 9 -d 8 -p ack -e 40 -c 2 -i 5 -a 2 -x {10.1 1.0 -1 ------- null}
r -t 1.00866133333333 -s 9 -d 10 -p tcp -e 40 -c 0 -i 3 -a 0 -x {2.0 10.2 0 ------- null}
+ -t 1.00866133333333 -s 10 -d 9 -p ack -e 40 -c 0 -i 7 -a 0 -x {10.2 2.0 0 ------- null}
- -t 1.00866133333333 -s 10 -d 9 -p ack -e 40 -c 0 -i 7 -a 0 -x {10.2 2.0 0 ------- null}
h -t 1.00866133333333 -s 10 -d 9 -p ack -e 40 -c 0 -i 7 -a 0 -x {10.2 2.0 -1 ------- null}
r -t 1.009728 -s 10 -d 9 -p ack -e 40 -c 3 -i 6 -a 3 -x {10.3 3.0 0 ------- null}
+ -t 1.009728 -s 9 -d 8 -p ack -e 40 -c 3 -i 6 -a 3 -x {10.3 3.0 0 ------- null}
- -t 1.009728 -s 9 -d 8 -p ack -e 40 -c 3 -i 6 -a 3 -x {10.3 3.0 0 ------- null}
h -t 1.009728 -s 9 -d 8 -p ack -e 40 -c 3 -i 6 -a 3 -x {10.3 3.0 -1 ------- null}
r -t 1.01399466666667 -s 8 -d 7 -p ack -e 40 -c 4 -i 4 -a 4 -x {10.0 0.0 0 ------- null}
+ -t 1.01399466666667 -s 7 -d 6 -p ack -e 40 -c 4 -i 4 -a 4 -x {10.0 0.0 0 ------- null}
- -t 1.01399466666667 -s 7 -d 6 -p ack -e 40 -c 4 -i 4 -a 4 -x {10.0 0.0 0 ------- null}
h -t 1.01399466666667 -s 7 -d 6 -p ack -e 40 -c 4 -i 4 -a 4 -x {10.0 0.0 -1 ------- null}
r -t 1.04079466666667 -s 9 -d 8 -p ack -e 40 -c 2 -i 5 -a 2 -x {10.1 1.0 0 ------- null}
+ -t 1.04079466666667 -s 8 -d 7 -p ack -e 40 -c 2 -i 5 -a 2 -x {10.1 1.0 0 ------- null}
- -t 1.04079466666667 -s 8 -d 7 -p ack -e 40 -c 2 -i 5 -a 2 -x {10.1 1.0 0 ------- null}
h -t 1.04079466666667 -s 8 -d 7 -p ack -e 40 -c 2 -i 5 -a 2 -x {10.1 1.0 -1 ------- null}
r -t 1.059728 -s 10 -d 9 -p ack -e 40 -c 0 -i 7 -a 0 -x {10.2 2.0 0 ------- null}
+ -t 1.059728 -s 9 -d 8 -p ack -e 40 -c 0 -i 7 -a 0 -x {10.2 2.0 0 ------- null}
- -t 1.059728 -s 9 -d 8 -p ack -e 40 -c 0 -i 7 -a 0 -x {10.2 2.0 0 ------- null}
h -t 1.059728 -s 9 -d 8 -p ack -e 40 -c 0 -i 7 -a 0 -x {10.2 2.0 -1 ------- null}
r -t 1.06079466666667 -s 9 -d 8 -p ack -e 40 -c 3 -i 6 -a 3 -x {10.3 3.0 0 ------- null}
+ -t 1.06079466666667 -s 8 -d 7 -p ack -e 40 -c 3 -i 6 -a 3 -x {10.3 3.0 0 ------- null}
- -t 1.06079466666667 -s 8 -d 7 -p ack -e 40 -c 3 -i 6 -a 3 -x {10.3 3.0 0 ------- null}
h -t 1.06079466666667 -s 8 -d 7 -p ack -e 40 -c 3 -i 6 -a 3 -x {10.3 3.0 -1 ------- null}
r -t 1.06506133333333 -s 7 -d 6 -p ack -e 40 -c 4 -i 4 -a 4 -x {10.0 0.0 0 ------- null}
+ -t 1.06506133333333 -s 6 -d 5 -p ack -e 40 -c 4 -i 4 -a 4 -x {10.0 0.0 0 ------- null}
- -t 1.06506133333333 -s 6 -d 5 -p ack -e 40 -c 4 -i 4 -a 4 -x {10.0 0.0 0 ------- null}
h -t 1.06506133333333 -s 6 -d 5 -p ack -e 40 -c 4 -i 4 -a 4 -x {10.0 0.0 -1 ------- null}
r -t 1.09399466666667 -s 8 -d 7 -p ack -e 40 -c 2 -i 5 -a 2 -x {10.1 1.0 0 ------- null}
+ -t 1.09399466666667 -s 7 -d 6 -p ack -e 40 -c 2 -i 5 -a 2 -x {10.1 1.0 0 ------- null}
- -t 1.09399466666667 -s 7 -d 6 -p ack -e 40 -c 2 -i 5 -a 2 -x {10.1 1.0 0 ------- null}
h -t 1.09399466666667 -s 7 -d 6 -p ack -e 40 -c 2 -i 5 -a 2 -x {10.1 1.0 -1 ------- null}
r -t 1.11079466666667 -s 9 -d 8 -p ack -e 40 -c 0 -i 7 -a 0 -x {10.2 2.0 0 ------- null}
+ -t 1.11079466666667 -s 8 -d 7 -p ack -e 40 -c 0 -i 7 -a 0 -x {10.2 2.0 0 ------- null}
- -t 1.11079466666667 -s 8 -d 7 -p ack -e 40 -c 0 -i 7 -a 0 -x {10.2 2.0 0 ------- null}
h -t 1.11079466666667 -s 8 -d 7 -p ack -e 40 -c 0 -i 7 -a 0 -x {10.2 2.0 -1 ------- null}
r -t 1.11399466666667 -s 8 -d 7 -p ack -e 40 -c 3 -i 6 -a 3 -x {10.3 3.0 0 ------- null}
+ -t 1.11399466666667 -s 7 -d 6 -p ack -e 40 -c 3 -i 6 -a 3 -x {10.3 3.0 0 ------- null}
- -t 1.11399466666667 -s 7 -d 6 -p ack -e 40 -c 3 -i 6 -a 3 -x {10.3 3.0 0 ------- null}
h -t 1.11399466666667 -s 7 -d 6 -p ack -e 40 -c 3 -i 6 -a 3 -x {10.3 3.0 -1 ------- null}
r -t 1.11719466666667 -s 6 -d 5 -p ack -e 40 -c 4 -i 4 -a 4 -x {10.0 0.0 0 ------- null}
+ -t 1.11719466666667 -s 5 -d 4 -p ack -e 40 -c 4 -i 4 -a 4 -x {10.0 0.0 0 ------- null}
- -t 1.11719466666667 -s 5 -d 4 -p ack -e 40 -c 4 -i 4 -a 4 -x {10.0 0.0 0 ------- null}
h -t 1.11719466666667 -s 5 -d 4 -p ack -e 40 -c 4 -i 4 -a 4 -x {10.0 0.0 -1 ------- null}
r -t 1.14506133333333 -s 7 -d 6 -p ack -e 40 -c 2 -i 5 -a 2 -x {10.1 1.0 0 ------- null}
+ -t 1.14506133333333 -s 6 -d 5 -p ack -e 40 -c 2 -i 5 -a 2 -x {10.1 1.0 0 ------- null}
- -t 1.14506133333333 -s 6 -d 5 -p ack -e 40 -c 2 -i 5 -a 2 -x {10.1 1.0 0 ------- null}
h -t 1.14506133333333 -s 6 -d 5 -p ack -e 40 -c 2 -i 5 -a 2 -x {10.1 1.0 -1 ------- null}
r -t 1.16399466666667 -s 8 -d 7 -p ack -e 40 -c 0 -i 7 -a 0 -x {10.2 2.0 0 ------- null}
+ -t 1.16399466666667 -s 7 -d 6 -p ack -e 40 -c 0 -i 7 -a 0 -x {10.2 2.0 0 ------- null}
- -t 1.16399466666667 -s 7 -d 6 -p ack -e 40 -c 0 -i 7 -a 0 -x {10.2 2.0 0 ------- null}
h -t 1.16399466666667 -s 7 -d 6 -p ack -e 40 -c 0 -i 7 -a 0 -x {10.2 2.0 -1 ------- null}
r -t 1.16506133333333 -s 7 -d 6 -p ack -e 40 -c 3 -i 6 -a 3 -x {10.3 3.0 0 ------- null}
+ -t 1.16506133333333 -s 6 -d 5 -p ack -e 40 -c 3 -i 6 -a 3 -x {10.3 3.0 0 ------- null}
- -t 1.16506133333333 -s 6 -d 5 -p ack -e 40 -c 3 -i 6 -a 3 -x {10.3 3.0 0 ------- null}
h -t 1.16506133333333 -s 6 -d 5 -p ack -e 40 -c 3 -i 6 -a 3 -x {10.3 3.0 -1 ------- null}
r -t 1.16725866666667 -s 5 -d 4 -p ack -e 40 -c 4 -i 4 -a 4 -x {10.0 0.0 0 ------- null}
+ -t 1.16725866666667 -s 4 -d 0 -p ack -e 40 -c 4 -i 4 -a 4 -x {10.0 0.0 0 ------- null}
- -t 1.16725866666667 -s 4 -d 0 -p ack -e 40 -c 4 -i 4 -a 4 -x {10.0 0.0 0 ------- null}
h -t 1.16725866666667 -s 4 -d 0 -p ack -e 40 -c 4 -i 4 -a 4 -x {10.0 0.0 -1 ------- null}
r -t 1.19719466666667 -s 6 -d 5 -p ack -e 40 -c 2 -i 5 -a 2 -x {10.1 1.0 0 ------- null}
+ -t 1.19719466666667 -s 5 -d 4 -p ack -e 40 -c 2 -i 5 -a 2 -x {10.1 1.0 0 ------- null}
- -t 1.19719466666667 -s 5 -d 4 -p ack -e 40 -c 2 -i 5 -a 2 -x {10.1 1.0 0 ------- null}
h -t 1.19719466666667 -s 5 -d 4 -p ack -e 40 -c 2 -i 5 -a 2 -x {10.1 1.0 -1 ------- null}
r -t 1.21506133333333 -s 7 -d 6 -p ack -e 40 -c 0 -i 7 -a 0 -x {10.2 2.0 0 ------- null}
+ -t 1.21506133333333 -s 6 -d 5 -p ack -e 40 -c 0 -i 7 -a 0 -x {10.2 2.0 0 ------- null}
- -t 1.21506133333333 -s 6 -d 5 -p ack -e 40 -c 0 -i 7 -a 0 -x {10.2 2.0 0 ------- null}
h -t 1.21506133333333 -s 6 -d 5 -p ack -e 40 -c 0 -i 7 -a 0 -x {10.2 2.0 -1 ------- null}
r -t 1.21719466666667 -s 6 -d 5 -p ack -e 40 -c 3 -i 6 -a 3 -x {10.3 3.0 0 ------- null}
+ -t 1.21719466666667 -s 5 -d 4 -p ack -e 40 -c 3 -i 6 -a 3 -x {10.3 3.0 0 ------- null}
- -t 1.21719466666667 -s 5 -d 4 -p ack -e 40 -c 3 -i 6 -a 3 -x {10.3 3.0 0 ------- null}
h -t 1.21719466666667 -s 5 -d 4 -p ack -e 40 -c 3 -i 6 -a 3 -x {10.3 3.0 -1 ------- null}
r -t 1.21732266666667 -s 4 -d 0 -p ack -e 40 -c 4 -i 4 -a 4 -x {10.0 0.0 0 ------- null}
1.21732  0  0  10 0  cwnd_ 2.000 
+ -t 1.21732266666667 -s 0 -d 4 -p tcp -e 1040 -c 4 -i 8 -a 4 -x {0.0 10.0 1 ------- null}
- -t 1.21732266666667 -s 0 -d 4 -p tcp -e 1040 -c 4 -i 8 -a 4 -x {0.0 10.0 1 ------- null}
h -t 1.21732266666667 -s 0 -d 4 -p tcp -e 1040 -c 4 -i 8 -a 4 -x {0.0 10.0 -1 ------- null}
+ -t 1.21732266666667 -s 0 -d 4 -p tcp -e 1040 -c 4 -i 9 -a 4 -x {0.0 10.0 2 ------- null}
- -t 1.21898666666667 -s 0 -d 4 -p tcp -e 1040 -c 4 -i 9 -a 4 -x {0.0 10.0 2 ------- null}
h -t 1.21898666666667 -s 0 -d 4 -p tcp -e 1040 -c 4 -i 9 -a 4 -x {0.0 10.0 -1 ------- null}
r -t 1.24725866666667 -s 5 -d 4 -p ack -e 40 -c 2 -i 5 -a 2 -x {10.1 1.0 0 ------- null}
+ -t 1.24725866666667 -s 4 -d 1 -p ack -e 40 -c 2 -i 5 -a 2 -x {10.1 1.0 0 ------- null}
- -t 1.24725866666667 -s 4 -d 1 -p ack -e 40 -c 2 -i 5 -a 2 -x {10.1 1.0 0 ------- null}
h -t 1.24725866666667 -s 4 -d 1 -p ack -e 40 -c 2 -i 5 -a 2 -x {10.1 1.0 -1 ------- null}
r -t 1.26719466666667 -s 6 -d 5 -p ack -e 40 -c 0 -i 7 -a 0 -x {10.2 2.0 0 ------- null}
+ -t 1.26719466666667 -s 5 -d 4 -p ack -e 40 -c 0 -i 7 -a 0 -x {10.2 2.0 0 ------- null}
- -t 1.26719466666667 -s 5 -d 4 -p ack -e 40 -c 0 -i 7 -a 0 -x {10.2 2.0 0 ------- null}
h -t 1.26719466666667 -s 5 -d 4 -p ack -e 40 -c 0 -i 7 -a 0 -x {10.2 2.0 -1 ------- null}
r -t 1.26725866666667 -s 5 -d 4 -p ack -e 40 -c 3 -i 6 -a 3 -x {10.3 3.0 0 ------- null}
+ -t 1.26725866666667 -s 4 -d 3 -p ack -e 40 -c 3 -i 6 -a 3 -x {10.3 3.0 0 ------- null}
- -t 1.26725866666667 -s 4 -d 3 -p ack -e 40 -c 3 -i 6 -a 3 -x {10.3 3.0 0 ------- null}
h -t 1.26725866666667 -s 4 -d 3 -p ack -e 40 -c 3 -i 6 -a 3 -x {10.3 3.0 -1 ------- null}
r -t 1.26898666666667 -s 0 -d 4 -p tcp -e 1040 -c 4 -i 8 -a 4 -x {0.0 10.0 1 ------- null}
+ -t 1.26898666666667 -s 4 -d 5 -p tcp -e 1040 -c 4 -i 8 -a 4 -x {0.0 10.0 1 ------- null}
- -t 1.26898666666667 -s 4 -d 5 -p tcp -e 1040 -c 4 -i 8 -a 4 -x {0.0 10.0 1 ------- null}
h -t 1.26898666666667 -s 4 -d 5 -p tcp -e 1040 -c 4 -i 8 -a 4 -x {0.0 10.0 -1 ------- null}
r -t 1.27065066666667 -s 0 -d 4 -p tcp -e 1040 -c 4 -i 9 -a 4 -x {0.0 10.0 2 ------- null}
+ -t 1.27065066666667 -s 4 -d 5 -p tcp -e 1040 -c 4 -i 9 -a 4 -x {0.0 10.0 2 ------- null}
- -t 1.27065066666667 -s 4 -d 5 -p tcp -e 1040 -c 4 -i 9 -a 4 -x {0.0 10.0 2 ------- null}
h -t 1.27065066666667 -s 4 -d 5 -p tcp -e 1040 -c 4 -i 9 -a 4 -x {0.0 10.0 -1 ------- null}
r -t 1.29732266666667 -s 4 -d 1 -p ack -e 40 -c 2 -i 5 -a 2 -x {10.1 1.0 0 ------- null}
1.29732  1  0  10 1  cwnd_ 2.000 
+ -t 1.29732266666667 -s 1 -d 4 -p tcp -e 1040 -c 2 -i 10 -a 2 -x {1.0 10.1 1 ------- null}
- -t 1.29732266666667 -s 1 -d 4 -p tcp -e 1040 -c 2 -i 10 -a 2 -x {1.0 10.1 1 ------- null}
h -t 1.29732266666667 -s 1 -d 4 -p tcp -e 1040 -c 2 -i 10 -a 2 -x {1.0 10.1 -1 ------- null}
+ -t 1.29732266666667 -s 1 -d 4 -p tcp -e 1040 -c 2 -i 11 -a 2 -x {1.0 10.1 2 ------- null}
- -t 1.29898666666667 -s 1 -d 4 -p tcp -e 1040 -c 2 -i 11 -a 2 -x {1.0 10.1 2 ------- null}
h -t 1.29898666666667 -s 1 -d 4 -p tcp -e 1040 -c 2 -i 11 -a 2 -x {1.0 10.1 -1 ------- null}
r -t 1.31725866666667 -s 5 -d 4 -p ack -e 40 -c 0 -i 7 -a 0 -x {10.2 2.0 0 ------- null}
+ -t 1.31725866666667 -s 4 -d 2 -p ack -e 40 -c 0 -i 7 -a 0 -x {10.2 2.0 0 ------- null}
- -t 1.31725866666667 -s 4 -d 2 -p ack -e 40 -c 0 -i 7 -a 0 -x {10.2 2.0 0 ------- null}
h -t 1.31725866666667 -s 4 -d 2 -p ack -e 40 -c 0 -i 7 -a 0 -x {10.2 2.0 -1 ------- null}
r -t 1.31732266666667 -s 4 -d 3 -p ack -e 40 -c 3 -i 6 -a 3 -x {10.3 3.0 0 ------- null}
1.31732  3  0  10 3  cwnd_ 2.000 
+ -t 1.31732266666667 -s 3 -d 4 -p tcp -e 1040 -c 3 -i 12 -a 3 -x {3.0 10.3 1 ------- null}
- -t 1.31732266666667 -s 3 -d 4 -p tcp -e 1040 -c 3 -i 12 -a 3 -x {3.0 10.3 1 ------- null}
h -t 1.31732266666667 -s 3 -d 4 -p tcp -e 1040 -c 3 -i 12 -a 3 -x {3.0 10.3 -1 ------- null}
+ -t 1.31732266666667 -s 3 -d 4 -p tcp -e 1040 -c 3 -i 13 -a 3 -x {3.0 10.3 2 ------- null}
- -t 1.31898666666667 -s 3 -d 4 -p tcp -e 1040 -c 3 -i 13 -a 3 -x {3.0 10.3 2 ------- null}
h -t 1.31898666666667 -s 3 -d 4 -p tcp -e 1040 -c 3 -i 13 -a 3 -x {3.0 10.3 -1 ------- null}
r -t 1.32065066666667 -s 4 -d 5 -p tcp -e 1040 -c 4 -i 8 -a 4 -x {0.0 10.0 1 ------- null}
+ -t 1.32065066666667 -s 5 -d 6 -p tcp -e 1040 -c 4 -i 8 -a 4 -x {0.0 10.0 1 ------- null}
- -t 1.32065066666667 -s 5 -d 6 -p tcp -e 1040 -c 4 -i 8 -a 4 -x {0.0 10.0 1 ------- null}
h -t 1.32065066666667 -s 5 -d 6 -p tcp -e 1040 -c 4 -i 8 -a 4 -x {0.0 10.0 -1 ------- null}
r -t 1.32231466666667 -s 4 -d 5 -p tcp -e 1040 -c 4 -i 9 -a 4 -x {0.0 10.0 2 ------- null}
+ -t 1.32231466666667 -s 5 -d 6 -p tcp -e 1040 -c 4 -i 9 -a 4 -x {0.0 10.0 2 ------- null}
r -t 1.34898666666667 -s 1 -d 4 -p tcp -e 1040 -c 2 -i 10 -a 2 -x {1.0 10.1 1 ------- null}
+ -t 1.34898666666667 -s 4 -d 5 -p tcp -e 1040 -c 2 -i 10 -a 2 -x {1.0 10.1 1 ------- null}
- -t 1.34898666666667 -s 4 -d 5 -p tcp -e 1040 -c 2 -i 10 -a 2 -x {1.0 10.1 1 ------- null}
h -t 1.34898666666667 -s 4 -d 5 -p tcp -e 1040 -c 2 -i 10 -a 2 -x {1.0 10.1 -1 ------- null}
r -t 1.35065066666667 -s 1 -d 4 -p tcp -e 1040 -c 2 -i 11 -a 2 -x {1.0 10.1 2 ------- null}
+ -t 1.35065066666667 -s 4 -d 5 -p tcp -e 1040 -c 2 -i 11 -a 2 -x {1.0 10.1 2 ------- null}
- -t 1.35065066666667 -s 4 -d 5 -p tcp -e 1040 -c 2 -i 11 -a 2 -x {1.0 10.1 2 ------- null}
h -t 1.35065066666667 -s 4 -d 5 -p tcp -e 1040 -c 2 -i 11 -a 2 -x {1.0 10.1 -1 ------- null}
r -t 1.36732266666667 -s 4 -d 2 -p ack -e 40 -c 0 -i 7 -a 0 -x {10.2 2.0 0 ------- null}
1.36732  2  0  10 2  cwnd_ 2.000 
+ -t 1.36732266666667 -s 2 -d 4 -p tcp -e 1040 -c 0 -i 14 -a 0 -x {2.0 10.2 1 ------- null}
- -t 1.36732266666667 -s 2 -d 4 -p tcp -e 1040 -c 0 -i 14 -a 0 -x {2.0 10.2 1 ------- null}
h -t 1.36732266666667 -s 2 -d 4 -p tcp -e 1040 -c 0 -i 14 -a 0 -x {2.0 10.2 -1 ------- null}
+ -t 1.36732266666667 -s 2 -d 4 -p tcp -e 1040 -c 0 -i 15 -a 0 -x {2.0 10.2 2 ------- null}
r -t 1.36898666666667 -s 3 -d 4 -p tcp -e 1040 -c 3 -i 12 -a 3 -x {3.0 10.3 1 ------- null}
+ -t 1.36898666666667 -s 4 -d 5 -p tcp -e 1040 -c 3 -i 12 -a 3 -x {3.0 10.3 1 ------- null}
- -t 1.36898666666667 -s 4 -d 5 -p tcp -e 1040 -c 3 -i 12 -a 3 -x {3.0 10.3 1 ------- null}
h -t 1.36898666666667 -s 4 -d 5 -p tcp -e 1040 -c 3 -i 12 -a 3 -x {3.0 10.3 -1 ------- null}
- -t 1.36898666666667 -s 2 -d 4 -p tcp -e 1040 -c 0 -i 15 -a 0 -x {2.0 10.2 2 ------- null}
h -t 1.36898666666667 -s 2 -d 4 -p tcp -e 1040 -c 0 -i 15 -a 0 -x {2.0 10.2 -1 ------- null}
r -t 1.37065066666667 -s 3 -d 4 -p tcp -e 1040 -c 3 -i 13 -a 3 -x {3.0 10.3 2 ------- null}
+ -t 1.37065066666667 -s 4 -d 5 -p tcp -e 1040 -c 3 -i 13 -a 3 -x {3.0 10.3 2 ------- null}
- -t 1.37065066666667 -s 4 -d 5 -p tcp -e 1040 -c 3 -i 13 -a 3 -x {3.0 10.3 2 ------- null}
h -t 1.37065066666667 -s 4 -d 5 -p tcp -e 1040 -c 3 -i 13 -a 3 -x {3.0 10.3 -1 ------- null}
- -t 1.37611733333333 -s 5 -d 6 -p tcp -e 1040 -c 4 -i 9 -a 4 -x {0.0 10.0 2 ------- null}
h -t 1.37611733333333 -s 5 -d 6 -p tcp -e 1040 -c 4 -i 9 -a 4 -x {0.0 10.0 -1 ------- null}
r -t 1.40065066666667 -s 4 -d 5 -p tcp -e 1040 -c 2 -i 10 -a 2 -x {1.0 10.1 1 ------- null}
+ -t 1.40065066666667 -s 5 -d 6 -p tcp -e 1040 -c 2 -i 10 -a 2 -x {1.0 10.1 1 ------- null}
r -t 1.40231466666667 -s 4 -d 5 -p tcp -e 1040 -c 2 -i 11 -a 2 -x {1.0 10.1 2 ------- null}
+ -t 1.40231466666667 -s 5 -d 6 -p tcp -e 1040 -c 2 -i 11 -a 2 -x {1.0 10.1 2 ------- null}
r -t 1.41898666666667 -s 2 -d 4 -p tcp -e 1040 -c 0 -i 14 -a 0 -x {2.0 10.2 1 ------- null}
+ -t 1.41898666666667 -s 4 -d 5 -p tcp -e 1040 -c 0 -i 14 -a 0 -x {2.0 10.2 1 ------- null}
- -t 1.41898666666667 -s 4 -d 5 -p tcp -e 1040 -c 0 -i 14 -a 0 -x {2.0 10.2 1 ------- null}
h -t 1.41898666666667 -s 4 -d 5 -p tcp -e 1040 -c 0 -i 14 -a 0 -x {2.0 10.2 -1 ------- null}
r -t 1.42065066666667 -s 4 -d 5 -p tcp -e 1040 -c 3 -i 12 -a 3 -x {3.0 10.3 1 ------- null}
+ -t 1.42065066666667 -s 5 -d 6 -p tcp -e 1040 -c 3 -i 12 -a 3 -x {3.0 10.3 1 ------- null}
r -t 1.42065066666667 -s 2 -d 4 -p tcp -e 1040 -c 0 -i 15 -a 0 -x {2.0 10.2 2 ------- null}
+ -t 1.42065066666667 -s 4 -d 5 -p tcp -e 1040 -c 0 -i 15 -a 0 -x {2.0 10.2 2 ------- null}
- -t 1.42065066666667 -s 4 -d 5 -p tcp -e 1040 -c 0 -i 15 -a 0 -x {2.0 10.2 2 ------- null}
h -t 1.42065066666667 -s 4 -d 5 -p tcp -e 1040 -c 0 -i 15 -a 0 -x {2.0 10.2 -1 ------- null}
r -t 1.42231466666667 -s 4 -d 5 -p tcp -e 1040 -c 3 -i 13 -a 3 -x {3.0 10.3 2 ------- null}
+ -t 1.42231466666667 -s 5 -d 6 -p tcp -e 1040 -c 3 -i 13 -a 3 -x {3.0 10.3 2 ------- null}
r -t 1.42611733333333 -s 5 -d 6 -p tcp -e 1040 -c 4 -i 8 -a 4 -x {0.0 10.0 1 ------- null}
+ -t 1.42611733333333 -s 6 -d 7 -p tcp -e 1040 -c 4 -i 8 -a 4 -x {0.0 10.0 1 ------- null}
- -t 1.42611733333333 -s 6 -d 7 -p tcp -e 1040 -c 4 -i 8 -a 4 -x {0.0 10.0 1 ------- null}
h -t 1.42611733333333 -s 6 -d 7 -p tcp -e 1040 -c 4 -i 8 -a 4 -x {0.0 10.0 -1 ------- null}
- -t 1.431584 -s 5 -d 6 -p tcp -e 1040 -c 2 -i 10 -a 2 -x {1.0 10.1 1 ------- null}
h -t 1.431584 -s 5 -d 6 -p tcp -e 1040 -c 2 -i 10 -a 2 -x {1.0 10.1 -1 ------- null}
r -t 1.47065066666667 -s 4 -d 5 -p tcp -e 1040 -c 0 -i 14 -a 0 -x {2.0 10.2 1 ------- null}
+ -t 1.47065066666667 -s 5 -d 6 -p tcp -e 1040 -c 0 -i 14 -a 0 -x {2.0 10.2 1 ------- null}
r -t 1.47231466666667 -s 4 -d 5 -p tcp -e 1040 -c 0 -i 15 -a 0 -x {2.0 10.2 2 ------- null}
+ -t 1.47231466666667 -s 5 -d 6 -p tcp -e 1040 -c 0 -i 15 -a 0 -x {2.0 10.2 2 ------- null}
r -t 1.481584 -s 5 -d 6 -p tcp -e 1040 -c 4 -i 9 -a 4 -x {0.0 10.0 2 ------- null}
+ -t 1.481584 -s 6 -d 7 -p tcp -e 1040 -c 4 -i 9 -a 4 -x {0.0 10.0 2 ------- null}
- -t 1.481584 -s 6 -d 7 -p tcp -e 1040 -c 4 -i 9 -a 4 -x {0.0 10.0 2 ------- null}
h -t 1.481584 -s 6 -d 7 -p tcp -e 1040 -c 4 -i 9 -a 4 -x {0.0 10.0 -1 ------- null}